<?xml version="1.0"?>
<VTKFile type="UnstructuredGrid" version="0.1" byte_order="LittleEndian">
  <UnstructuredGrid>
    <Piece NumberOfPoints="963" NumberOfCells="1758">
      <Points>
        <DataArray type="Float64" NumberOfComponents="3" format="ascii">
          1.600262034769e+002 1.257989505921e+001 0.000000000000e+000
          1.635346199106e+002 2.000000000000e+001 0.000000000000e+000
          1.554515002484e+002 2.000000000000e+001 0.000000000000e+000
          3.459306441575e+000 1.667621982453e+001 0.000000000000e+000
          3.062266634850e+000 1.705413688405e+001 0.000000000000e+000
          2.873380769063e+000 1.650527725632e+001 0.000000000000e+000
          1.514088444034e+000 1.865189448105e+001 0.000000000000e+000
          1.967902677551e+000 1.834103489750e+001 0.000000000000e+000
          2.034564522234e+000 1.890806711991e+001 0.000000000000e+000
          2.478275273162e+000 1.702762299110e+001 0.000000000000e+000
          2.952621433467e+000 1.774357373580e+001 0.000000000000e+000
          2.237893542067e+000 1.782457469610e+001 0.000000000000e+000
          3.313583922780e+000 3.274674552047e+000 0.000000000000e+000
          2.561432712787e+000 3.156040447793e+000 0.000000000000e+000
          3.047531989640e+000 2.714594415171e+000 0.000000000000e+000
          2.750804692284e+000 3.936058190693e+000 0.000000000000e+000
          2.599039179818e+000 2.451529939148e+000 0.000000000000e+000
          3.139686649742e+000 2.186924052088e+000 0.000000000000e+000
          1.919984553221e+000 3.358010194268e+000 0.000000000000e+000
          1.960900304591e+000 2.773319745251e+000 0.000000000000e+000
          1.894565400391e+000 1.733316857565e+001 0.000000000000e+000
          0.000000000000e+000 1.538461538461e+001 0.000000000000e+000
          5.816229249735e-001 1.567919247147e+001 0.000000000000e+000
          0.000000000000e+000 1.589743589743e+001 0.000000000000e+000
          9.766405669483e+001 2.000000000000e+001 0.000000000000e+000
          1.010672711393e+002 1.500000000000e+001 0.000000000000e+000
          1.029329279907e+002 2.000000000000e+001 0.000000000000e+000
          9.588503785413e+001 1.500000000000e+001 0.000000000000e+000
          1.039231647117e+002 1.000000000000e+001 0.000000000000e+000
          9.860830811271e+001 1.000000000000e+001 0.000000000000e+000
          1.010672711397e+002 5.000000000000e+000 0.000000000000e+000
          9.766405669557e+001 0.000000000000e+000 0.000000000000e+000
          1.029329279915e+002 0.000000000000e+000 0.000000000000e+000
          9.588503785449e+001 5.000000000000e+000 0.000000000000e+000
          7.892434178002e+001 2.000000000000e+001 0.000000000000e+000
          8.173808356948e+001 1.500000000000e+001 0.000000000000e+000
          8.328058896910e+001 2.000000000000e+001 0.000000000000e+000
          7.679274808893e+001 1.514423393202e+001 0.000000000000e+000
          7.970503892166e+001 1.000000000000e+001 0.000000000000e+000
          8.409930620613e+001 1.000000000000e+001 0.000000000000e+000
          8.173808356980e+001 5.000000000000e+000 0.000000000000e+000
          7.892434178065e+001 0.000000000000e+000 0.000000000000e+000
          8.328058896976e+001 0.000000000000e+000 0.000000000000e+000
          7.679274808925e+001 4.855766067979e+000 0.000000000000e+000
          1.084583939765e+002 2.000000000000e+001 0.000000000000e+000
          1.122011528880e+002 1.500000000000e+001 0.000000000000e+000
          1.142529496098e+002 2.000000000000e+001 0.000000000000e+000
          1.065018792644e+002 1.500000000000e+001 0.000000000000e+000
          1.153419838410e+002 1.000000000000e+001 0.000000000000e+000
          1.094968549120e+002 1.000000000000e+001 0.000000000000e+000
          1.122011528884e+002 5.000000000000e+000 0.000000000000e+000
          1.084583939773e+002 0.000000000000e+000 0.000000000000e+000
          1.142529496106e+002 0.000000000000e+000 0.000000000000e+000
          1.065018792648e+002 5.000000000000e+000 0.000000000000e+000
          1.181779812237e+002 1.500000000000e+001 0.000000000000e+000
          1.203297004775e+002 2.000000000000e+001 0.000000000000e+000
          1.214717707847e+002 1.000000000000e+001 0.000000000000e+000
          1.181779812242e+002 5.000000000000e+000 0.000000000000e+000
          1.203297004784e+002 0.000000000000e+000 0.000000000000e+000
          7.477039199538e+001 2.000000000000e+001 0.000000000000e+000
          7.551483469771e+001 1.000000000000e+001 0.000000000000e+000
          7.296959467356e+001 1.385646386579e+001 0.000000000000e+000
          7.477039199599e+001 0.000000000000e+000 0.000000000000e+000
          7.296959467379e+001 6.143536134207e+000 0.000000000000e+000
          6.918477198508e+001 1.366665532880e+001 0.000000000000e+000
          6.746477463053e+001 1.000000000000e+001 0.000000000000e+000
          7.151921701478e+001 1.000000000000e+001 0.000000000000e+000
          6.918477198529e+001 6.333344671202e+000 0.000000000000e+000
          9.263986346551e+001 2.000000000000e+001 0.000000000000e+000
          9.094345943471e+001 1.500000000000e+001 0.000000000000e+000
          9.354026529380e+001 1.000000000000e+001 0.000000000000e+000
          9.263986346623e+001 0.000000000000e+000 0.000000000000e+000
          9.094345943506e+001 5.000000000000e+000 0.000000000000e+000
          1.244344522558e+002 1.503312574389e+001 0.000000000000e+000
          1.267023895482e+002 2.000000000000e+001 0.000000000000e+000
          1.285510028831e+002 1.020485663255e+001 0.000000000000e+000
          1.244344522563e+002 5.033125743893e+000 0.000000000000e+000
          1.267023895491e+002 0.000000000000e+000 0.000000000000e+000
          8.623136018348e+001 1.500000000000e+001 0.000000000000e+000
          8.784898578901e+001 2.000000000000e+001 0.000000000000e+000
          8.870757443665e+001 1.000000000000e+001 0.000000000000e+000
          8.623136018382e+001 5.000000000000e+000 0.000000000000e+000
          8.784898578969e+001 0.000000000000e+000 0.000000000000e+000
          4.872472752737e+000 0.000000000000e+000 0.000000000000e+000
          4.204479229380e+000 6.412840757122e-001 0.000000000000e+000
          4.157376851380e+000 0.000000000000e+000 0.000000000000e+000
          5.192892237051e+000 7.280355562789e-001 0.000000000000e+000
          1.306630304579e+000 6.212843344151e-001 0.000000000000e+000
          1.050228457081e+000 0.000000000000e+000 0.000000000000e+000
          1.614006202528e+000 0.000000000000e+000 0.000000000000e+000
          1.266763055794e+001 1.554696422866e+001 0.000000000000e+000
          1.263589100638e+001 1.657720348306e+001 0.000000000000e+000
          1.174268578662e+001 1.633018318031e+001 0.000000000000e+000
          6.588835695415e+000 7.505681085529e+000 0.000000000000e+000
          6.456871838389e+000 6.658671683861e+000 0.000000000000e+000
          7.208099140752e+000 7.038822846307e+000 0.000000000000e+000
          4.412623338166e+000 9.138856431549e+000 0.000000000000e+000
          4.024185797397e+000 8.708923235630e+000 0.000000000000e+000
          4.601447447338e+000 8.507292699647e+000 0.000000000000e+000
          5.325995059827e-001 6.308307298123e+000 0.000000000000e+000
          0.000000000000e+000 6.666666666655e+000 0.000000000000e+000
          0.000000000000e+000 6.153846153835e+000 0.000000000000e+000
          3.986461521768e+000 8.146114708182e+000 0.000000000000e+000
          2.411603373059e+000 6.510912162016e+000 0.000000000000e+000
          1.807525763324e+000 6.938080373464e+000 0.000000000000e+000
          1.686779352680e+000 6.178928843543e+000 0.000000000000e+000
          2.510760620997e+000 7.229076682239e+000 0.000000000000e+000
          3.166991983438e+000 6.906135870389e+000 0.000000000000e+000
          3.452788915829e+000 6.276851216781e+000 0.000000000000e+000
          3.340122000742e+000 5.656365440432e+000 0.000000000000e+000
          4.047936562877e+000 5.873561587395e+000 0.000000000000e+000
          1.802463974828e+000 1.292744708026e+001 0.000000000000e+000
          1.383967161336e+000 1.330299552906e+001 0.000000000000e+000
          1.329690820161e+000 1.266495373033e+001 0.000000000000e+000
          2.267922292389e+000 1.431116835808e+001 0.000000000000e+000
          2.854613987538e+000 1.466581611369e+001 0.000000000000e+000
          2.339869278674e+000 1.493776402241e+001 0.000000000000e+000
          4.690956878046e+000 3.115726773737e+000 0.000000000000e+000
          4.014773718330e+000 2.850429494150e+000 0.000000000000e+000
          4.643493383296e+000 2.293565471327e+000 0.000000000000e+000
          5.186083944243e+000 1.661927139510e+000 0.000000000000e+000
          5.452965511439e+000 2.679881546544e+000 0.000000000000e+000
          5.360460104304e+000 3.539902157655e+000 0.000000000000e+000
          6.197986304192e+000 3.115706366113e+000 0.000000000000e+000
          7.929356606585e-001 1.634705420870e+001 0.000000000000e+000
          1.222819867503e+000 1.599517159419e+001 0.000000000000e+000
          1.215723647926e+000 1.546209040954e+001 0.000000000000e+000
          1.770601276021e+000 1.521217632514e+001 0.000000000000e+000
          1.242830150061e+000 1.493919370237e+001 0.000000000000e+000
          1.166444124506e+000 4.610115997312e+000 0.000000000000e+000
          1.851620547934e+000 4.486892013458e+000 0.000000000000e+000
          1.494152702314e+000 5.145235789232e+000 0.000000000000e+000
          1.353088107040e+000 4.090803091641e+000 0.000000000000e+000
          3.802567455935e+000 5.084697985980e+000 0.000000000000e+000
          1.014840185783e+000 5.494768572296e+000 0.000000000000e+000
          8.831064584820e-001 5.109311190608e+000 0.000000000000e+000
          1.727903958959e+000 1.618384478933e+001 0.000000000000e+000
          1.343261525342e+000 1.651800241408e+001 0.000000000000e+000
          3.308120627291e+000 8.593311644828e+000 0.000000000000e+000
[...]
      <PointData Scalars="LIQUID_PRESSURE">
        <DataArray type="Float64" Name="LIQUID_PRESSURE" format="ascii">
          1.000000000000e+006 1.000000000000e+006 1.000000000000e+006 1.052130446839e+006 1.058930534815e+006 1.062215386293e+006 1.081501352711e+006 1.076692716547e+006 1.075774072142e+006 1.068972806547e+006 1.060832049361e+006 1.072768603595e+006 1.054579156069e+006 1.067574194344e+006 1.059201348699e+006 1.064292529517e+006 1.066943288722e+006 1.057618394251e+006 1.077290600086e+006 1.076843892077e+006 1.077656091879e+006 1.074440420363e+006 1.080112639187e+006 1.074504345475e+006 1.000000000000e+006 1.000000000000e+006 1.000000000000e+006 1.000000000000e+006 1.000000000000e+006 1.000000000000e+006 1.000000000000e+006 1.000000000000e+006 1.000000000000e+006 1.000000000000e+006 1.000000000000e+006 1.000000000000e+006 1.000000000000e+006 1.000000000000e+006 1.000000000000e+006 1.000000000000e+006 1.000000000000e+006 1.000000000000e+006 1.000000000000e+006 1.000000000000e+006 1.000000000000e+006 1.000000000000e+006 1.000000000000e+006 1.000000000000e+006 1.000000000000e+006 1.000000000000e+006 1.000000000000e+006 1.000000000000e+006 1.000000000000e+006 1.000000000000e+006 1.000000000000e+006 1.000000000000e+006 1.000000000000e+006 1.000000000000e+006 1.000000000000e+006 1.000000000000e+006 1.000000000000e+006 1.000000000000e+006 1.000000000000e+006 1.000000000000e+006 1.000000000000e+006 1.000000000000e+006 1.000000000000e+006 1.000000000000e+006 1.000000000000e+006 1.000000000000e+006 1.000000000000e+006 1.000000000000e+006 1.000000000000e+006 1.000000000000e+006 1.000000000000e+006 1.000000000000e+006 1.000000000000e+006 1.000000000000e+006 1.000000000000e+006 1.000000000000e+006 1.000000000000e+006 1.000000000000e+006 1.000000000000e+006 1.031614935093e+006 1.040339177199e+006 1.041208333665e+006 1.027841891351e+006 1.082821962302e+006 1.082919769166e+006 1.080712824907e+006 1.001046281914e+006 1.001069523803e+006 1.001607278937e+006 1.015894448420e+006 1.016724343421e+006 1.012221462503e+006 1.037513336826e+006 1.043136702578e+006 1.034958144805e+006 1.079394824348e+006 1.074318285667e+006 1.074419828005e+006 1.043656853494e+006 1.070196004515e+006 1.078974448860e+006 1.080162270462e+006 1.068501980413e+006 1.057157362353e+006 1.052298408528e+006 1.054150983843e+006 1.042692705599e+006 1.078625254970e+006 1.082485034931e+006 1.082609003647e+006 1.072327488710e+006 1.062531164311e+006 1.071201476591e+006 1.033816983112e+006 1.043244333100e+006 1.034429903416e+006 1.027946566110e+006 1.025185449717e+006 1.026130453653e+006 1.018630448346e+006 1.081808832771e+006 1.082977798925e+006 1.082967016323e+006 1.079154458749e+006 1.082820233066e+006 1.083019040957e+006 1.078238231573e+006 1.081709765222e+006 1.082401850578e+006 1.046534159367e+006 1.082742554140e+006 1.082462665020e+006 1.079508809681e+006 1.082487370685e+006 1.054728514077e+006 1.065613413531e+006 1.057702055334e+006 1.081986772557e+006 1.081851942149e+006 1.082714595785e+006 1.081845719042e+006 1.082524854925e+006 1.082129869193e+006 1.061252575916e+006 1.081971852049e+006 1.061776206154e+006 1.067328573776e+006 1.077493657817e+006 1.074565877263e+006 1.082698459542e+006 1.079799915218e+006 1.074183430006e+006 1.042708091372e+006 1.031613611488e+006 1.028102739092e+006 1.023547981367e+006 1.020240300955e+006 1.081885247919e+006 1.082131110134e+006 1.082426038396e+006 1.082493218678e+006 1.079686429427e+006 1.074457695318e+006 1.077583613983e+006 1.074578384048e+006 1.071788515511e+006 1.046773896149e+006 1.040442833987e+006 1.081787514728e+006 1.082826376055e+006 1.065841795575e+006 1.057415815952e+006 1.064094275927e+006 1.077883202339e+006 1.074499553063e+006 1.082994289405e+006 1.077883371544e+006 1.078472962352e+006 1.059987892508e+006 1.069135975654e+006 1.082089890405e+006 1.081240249993e+006 1.057230293181e+006 1.050994636811e+006 1.079222781327e+006 1.072371353215e+006 1.019220553575e+006 1.013968876234e+006 1.073092519917e+006 1.072021954077e+006 1.082748155982e+006 1.072236472331e+006 1.081644022759e+006 1.067962463384e+006 1.050401165689e+006 1.050577381291e+006 1.041000869174e+006 1.076605839674e+006 1.079804874288e+006 1.082882346064e+006 1.082710736272e+006 1.082785425265e+006 1.081065139189e+006 1.056092705264e+006 1.057803589863e+006 1.082112626114e+006 1.082818094956e+006 1.081071086970e+006 1.074929830516e+006 1.000000000000e+006 1.000000000000e+006 1.065756291752e+006 1.072753836644e+006 1.082846560363e+006 1.007839883400e+006 1.010072257491e+006 1.006383295521e+006 1.047620837133e+006 1.037669334171e+006 1.082774790223e+006 1.081662152724e+006 1.082346363872e+006 1.078332292815e+006 1.068644779293e+006 1.082528129671e+006 1.076875838671e+006 1.083153873793e+006 1.082914671866e+006 1.065225603937e+006 1.051068397163e+006 1.080306638685e+006 1.048834840774e+006 1.078300040604e+006 1.079136054257e+006 1.053947458551e+006 1.072991277352e+006 1.080893109770e+006 1.079821851283e+006 1.079508814575e+006 1.074212101173e+006 1.074306605262e+006 1.074305813599e+006 1.074430866233e+006 1.078538663674e+006 1.074963791375e+006 1.078450755613e+006 1.082810247519e+006 1.080609933029e+006 1.074931373546e+006 1.076940667457e+006 1.074722053498e+006 1.074577370205e+006 1.078793141726e+006 1.074561262420e+006 1.079156650874e+006 1.074444666771e+006 1.077889662509e+006 1.074563869843e+006 1.074633144204e+006 1.000000000000e+006 1.000000000000e+006 1.000000000000e+006 1.000000000000e+006 1.000000000000e+006 1.000000000000e+006 1.000000000000e+006 1.000000000000e+006 1.000000000000e+006 1.000000000000e+006 1.000000000000e+006 1.000000000000e+006 1.000000000001e+006 1.000000000000e+006 1.000000000000e+006 1.000000000001e+006 1.000000000000e+006 1.000000000001e+006 1.000000000000e+006 1.000000000001e+006 1.000000000000e+006 1.000000000001e+006 1.000000000000e+006 1.000000000001e+006 1.000000011094e+006 1.000000005338e+006 1.000000003402e+006 1.000000016910e+006 1.000000003155e+006 1.000000010361e+006 1.000000005333e+006 1.000000011081e+006 1.000000003399e+006 1.000000016893e+006 1.000000003153e+006 1.000000010356e+006 1.000000000976e+006 1.000000000433e+006 1.000000000260e+006 1.000000001575e+006 1.000000000239e+006 1.000000000900e+006 1.000000000432e+006 1.000000000975e+006 1.000000000260e+006 1.000000001574e+006 1.000000000239e+006 1.000000000900e+006 1.000000271011e+006 1.000000162430e+006 1.000000099388e+006 1.000000409116e+006 1.000000162226e+006 1.000000270607e+006 1.000000099257e+006 1.000000408570e+006 1.000000000064e+006 1.000000000026e+006 1.000000000015e+006 1.000000000110e+006 1.000000000013e+006 1.000000000059e+006 1.000000000026e+006 1.000000000064e+006 1.000000000015e+006 1.000000000110e+006 1.000000000013e+006 1.000000000059e+006 1.000000000003e+006 1.000000000006e+006 1.000000000003e+006 1.000000000003e+006 1.000000000006e+006 1.000000000003e+006 1.000000034016e+006 1.000000061721e+006 1.000000032063e+006 1.000000033974e+006 1.000000061657e+006 1.000000032046e+006 1.000000095640e+006 1.000000095591e+006 1.000000000001e+006 1.000000000004e+006 1.000000000001e+006 1.000000000007e+006 1.000000000001e+006 1.000000000007e+006 1.000000001959e+006 1.000000004355e+006 1.000000001285e+006 1.000000006540e+006 1.000000001959e+006 1.000000006539e+006 1.000000000000e+006 1.000000000000e+006 1.000000000000e+006 1.000000194386e+006 1.000000268591e+006 1.000000268709e+006 1.000000194410e+006 1.000000000021e+006 1.000000000034e+006 1.000000000034e+006 1.000000000548e+006 1.000000000352e+006 1.000000000547e+006 1.000000000142e+006 1.000000000089e+006 1.000000000142e+006 1.000000061475e+006 1.000000061486e+006 1.000000013741e+006 1.000000020474e+006 1.000000020470e+006 1.000000000000e+006 1.000000000000e+006 1.000000000000e+006 1.000000046787e+006 1.000000000000e+006 1.000000000000e+006 1.000000000000e+006 1.000000000000e+006 1.000000000000e+006 1.000000000000e+006 1.000000000000e+006 1.010995065996e+006 1.008341117940e+006 1.012103789827e+006 1.007234101174e+006 1.063031700156e+006 1.066075058573e+006 1.073249502034e+006 1.063046056727e+006 1.073234135007e+006 1.031841294536e+006 1.029594550202e+006 1.080884323065e+006 1.079246860325e+006 1.022112227031e+006 1.000000000000e+006 1.000000000000e+006 1.000000000000e+006 1.017080750340e+006 1.012081789545e+006 1.013555938032e+006 1.016135387733e+006 1.044718948380e+006 1.067665519598e+006 1.082906555791e+006 1.044207586178e+006 1.081061010140e+006 1.071230576326e+006 1.079535175352e+006 1.011015341900e+006 1.010821026854e+006 1.007361603953e+006 1.071641137864e+006 1.060087610978e+006 1.074305199312e+006 1.079158869993e+006 1.074469654071e+006 1.008368757531e+006 1.011135613471e+006 1.011128429166e+006 1.013407833882e+006 1.008937326995e+006 1.016700728780e+006 1.007247715102e+006 1.004811196258e+006 1.005960484353e+006 1.007229981249e+006 1.080340625987e+006 1.043604111931e+006 1.046778011371e+006 1.054760803017e+006 1.007328808511e+006 1.005924814651e+006 1.004696536935e+006 1.003936276381e+006 1.050822223737e+006 1.062932379738e+006 1.001848660326e+006 1.001715669489e+006 1.002590301147e+006 1.013324647921e+006 1.016350334018e+006 1.001048802529e+006 1.001876724465e+006 1.001396772711e+006 1.038643955088e+006 1.023309630738e+006 1.019258376463e+006 1.000591766812e+006 1.000629051021e+006 1.080236371666e+006 1.082833711778e+006 1.010942772298e+006 1.015951916123e+006 1.009560467248e+006 1.010692018223e+006 1.007253385075e+006 1.007014557177e+006 1.022491802783e+006 1.003230875879e+006 1.003945563197e+006 1.001717657471e+006 1.001234946101e+006 1.000978923755e+006 1.004856413759e+006 1.000857790187e+006 1.001277896526e+006 1.001433833081e+006 1.000700668634e+006 1.039753216206e+006 1.044006571301e+006 1.003149412062e+006 1.004355688560e+006 1.026413291231e+006 1.055068960700e+006 1.031916176738e+006 1.034419557048e+006 1.083053913706e+006 1.082728629307e+006 1.065981253828e+006 1.074265141077e+006 1.019033400773e+006 1.022599759902e+006 1.006960610422e+006 1.005405698009e+006 1.004598937558e+006 1.008474286514e+006 1.005857103011e+006 1.004526650194e+006 1.007704059399e+006 1.019830599011e+006 1.020047521404e+006 1.024467471325e+006 1.008972324268e+006 1.031318283583e+006 1.015092036309e+006 1.030128223624e+006 1.025930042869e+006 1.003010050634e+006 1.001951972041e+006 1.002571951798e+006 1.038577949107e+006 1.048571489435e+006 1.026576892745e+006 1.006209398789e+006 1.033933598393e+006 1.002197859111e+006 1.002701012704e+006 1.082721218332e+006 1.079292489777e+006 1.036487807942e+006 1.030078538204e+006 1.037001193146e+006 1.015019694381e+006 1.033372146102e+006 1.009032453930e+006 1.006320645592e+006 1.076863278893e+006 1.052743457776e+006 1.058940905800e+006 1.043034041142e+006 1.012365127021e+006 1.010917257945e+006 1.012007049596e+006 1.015257523763e+006 1.029905496032e+006 1.079703890369e+006 1.070822916542e+006 1.003673552978e+006 1.004538916868e+006 1.004992355682e+006 1.003275572652e+006 1.020098348655e+006 1.002016850681e+006 1.001183570805e+006 1.001397472373e+006 1.021333558433e+006 1.038611360791e+006 1.073939337750e+006 1.010043642765e+006 1.003647182875e+006 1.003061940054e+006 1.002355668489e+006 1.004579288649e+006 1.004602371583e+006 1.074624959112e+006 1.078997649649e+006 1.063689001600e+006 1.002636232456e+006 1.002148648284e+006 1.014468471242e+006 1.018566080009e+006 1.018977124430e+006 1.002984549837e+006 1.004484535710e+006 1.003905930037e+006 1.074929569675e+006 1.083157832344e+006 1.077721890879e+006 1.044588723136e+006 1.047880538471e+006 1.003525443090e+006 1.005759482004e+006 1.024638839702e+006 1.083119396884e+006 1.080456886467e+006 1.006498239112e+006 1.004730809785e+006 1.005345890693e+006 1.064483336755e+006 1.012232239169e+006 1.034956662139e+006 1.003205141568e+006 1.024145455948e+006 1.069464952820e+006 1.062018683106e+006 1.076038675425e+006 1.008676408692e+006 1.002108221525e+006 1.062733045912e+006 1.054528540779e+006 1.006272691438e+006 1.001554195841e+006 1.002300433150e+006 1.058448154660e+006 1.079399854691e+006 1.078033789795e+006 1.003900737499e+006 1.003240093510e+006 1.002491854485e+006 1.000000000000e+006 1.000000000000e+006 1.000000000000e+006 1.008194758235e+006 1.079102101434e+006 1.068939311944e+006 1.066397430845e+006 1.059373714341e+006 1.036035085210e+006 1.008286071613e+006 1.051748744277e+006 1.034795530162e+006 1.029646264737e+006 1.000000000000e+006 1.000000000000e+006 1.079125780072e+006 1.074406127650e+006 1.080517484938e+006 1.029749832045e+006 1.004959435499e+006 1.023219205543e+006 1.005999535393e+006 1.081972721570e+006 1.013319561213e+006 1.081685550278e+006 1.002724526069e+006 1.002925024702e+006 1.011128742836e+006 1.000000000000e+006 1.000000000000e+006 1.043033498719e+006 1.023922644310e+006 1.026498661892e+006 1.019418342091e+006 1.009083509112e+006 1.079935508440e+006 1.000000591539e+006 1.000000540517e+006 1.000000591413e+006 1.000000540530e+006 1.052135628689e+006 1.081026150350e+006 1.009410010075e+006 1.083062062313e+006 1.000000438300e+006 1.000000289783e+006 1.000000162372e+006 1.000000289779e+006 1.002185415183e+006 1.001568492245e+006 1.081816826431e+006 1.002760121513e+006 1.048835519040e+006 1.055902228186e+006 1.041443032200e+006 1.037190856483e+006 1.082673503885e+006 1.082998906369e+006 1.074842342527e+006 1.082980076079e+006 1.001108814101e+006 1.001916765781e+006 1.000000000000e+006 1.000000000000e+006 1.078318284879e+006 1.075945033282e+006 1.044248796265e+006 1.068809801536e+006 1.006857673921e+006 1.078360974350e+006 1.009129453711e+006 1.000000000000e+006 1.000000000000e+006 1.000767080639e+006 1.018356862437e+006 1.000426652316e+006 1.000296801698e+006 1.000223306815e+006 1.002143113651e+006 1.041489474851e+006 1.045978412692e+006 1.001307228895e+006 1.000000000000e+006 1.000000000000e+006 1.000837553084e+006 1.074328777546e+006 1.074673291301e+006 1.001461649118e+006 1.074840195030e+006 1.078058929230e+006 1.074514285822e+006 1.001787185560e+006 1.000001660192e+006 1.000000939007e+006 1.000000891406e+006 1.000002646622e+006 1.000002249104e+006 1.000000938875e+006 1.000002645947e+006 1.000002248387e+006 1.000003844398e+006 1.000006100830e+006 1.000004638360e+006 1.000006098349e+006 1.000004635938e+006 1.000008645499e+006 1.000013369273e+006 1.000010287759e+006 1.000013376455e+006 1.000010295925e+006 1.000018605179e+006 1.000028122491e+006 1.000021922533e+006 1.000028132807e+006 1.000021945749e+006 1.000038443010e+006 1.000057025594e+006 1.000044885904e+006 1.000056944512e+006 1.000044927496e+006 1.000076520271e+006 1.000112683318e+006 1.000088809638e+006 1.000111629963e+006 1.000088616714e+006 1.000001260536e+006 1.000001332956e+006 1.000002791623e+006 1.000003480282e+006 1.000001332798e+006 1.000001260956e+006 1.000002792051e+006 1.000003479291e+006 1.000006393952e+006 1.000007894526e+006 1.000006394138e+006 1.000007898629e+006 1.000013981428e+006 1.000017070624e+006 1.000013984527e+006 1.000017081476e+006 1.000029310308e+006 1.000035457163e+006 1.000029318256e+006 1.000035460753e+006 1.000012038324e+006 1.000019531203e+006 1.000009186370e+006 1.000025262002e+006 1.000007302454e+006 1.000017036771e+006 1.000019595824e+006 1.000012068066e+006 1.000009210703e+006 1.000025336555e+006 1.000007313741e+006 1.000017061586e+006 1.000040123752e+006 1.000051462369e+006 1.000035480724e+006 1.000040296027e+006 1.000051658225e+006 1.000035523186e+006 1.000079277124e+006 1.000102129699e+006 1.000071529805e+006 1.000079719538e+006 1.000102744638e+006 1.000071536637e+006 1.000151190536e+006 1.000205808284e+006 1.000133196199e+006 1.000152043681e+006 1.000206182120e+006 1.000138319745e+006 1.000278261762e+006 1.000388900683e+006 1.000279182400e+006 1.000376419082e+006 1.000059148390e+006 1.000071244350e+006 1.000059125674e+006 1.000071010583e+006 1.000002037079e+006 1.000000585367e+006 1.000001109490e+006 1.000002038652e+006 1.000000585805e+006 1.000001111096e+006 1.000004679530e+006 1.000003031022e+006 1.000004682724e+006 1.000003035812e+006 1.000010427704e+006 1.000010433384e+006 1.000022186688e+006 1.000022193126e+006 1.000045668684e+006 1.000045658776e+006 1.003593690068e+006 1.005594004234e+006 1.003665430425e+006 1.078999015621e+006 1.000092089802e+006 1.000091957109e+006 1.000495792831e+006 1.000497364459e+006 1.000147591533e+006 1.000221660316e+006 1.000173729938e+006 1.000215239949e+006 1.000169516852e+006 1.000115756060e+006 1.000141138111e+006 1.000115285261e+006 1.000138669383e+006 1.000166049782e+006 1.002309717851e+006 1.000175354716e+006 1.003653913851e+006 1.005586234545e+006 1.000680874944e+006 1.000860296959e+006 1.000221640248e+006 1.000342229752e+006 1.000271419322e+006 1.000268804576e+006 1.000279998753e+006 1.000378648801e+006 1.000369094044e+006 1.000408168696e+006 1.000352290107e+006 1.000539390936e+006 1.000469191260e+006 1.000529930059e+006 1.000384562597e+006 1.000534734122e+006 1.000749112080e+006 1.015260304874e+006 1.002938858073e+006 1.000723477491e+006 1.020649052009e+006 1.079251263580e+006 1.000670064410e+006 1.000000000000e+006 1.000000000000e+006 1.000000000000e+006 1.013444029307e+006 1.016523464775e+006 1.021001462852e+006 1.017724203704e+006 1.013955707963e+006 1.051882669145e+006 1.074330264267e+006 1.020374965485e+006 1.074617610863e+006 1.011503993328e+006 1.001431362086e+006 1.001232636495e+006 1.051375187125e+006 1.029931256841e+006 1.001046020455e+006 1.000796321555e+006 1.015342493118e+006 1.000971293210e+006 1.001067445392e+006 1.004085162586e+006 1.002140513424e+006 1.000239992313e+006 1.013630818195e+006 1.000000000000e+006 1.000000000000e+006 1.038900050307e+006 1.000000124917e+006 1.000000124913e+006 1.000527498999e+006 1.029850878304e+006 1.015758082565e+006 1.000494759681e+006 1.022697513671e+006 1.024993908922e+006 1.081491222896e+006 1.000325649502e+006 1.000366633715e+006 1.000338086571e+006 1.009324070854e+006 1.000000000000e+006 1.000000000000e+006 1.005929291249e+006 1.001890402900e+006 1.000000000000e+006 1.074491868888e+006 1.079589192736e+006 1.074481463361e+006 1.000634285995e+006 1.012661778614e+006 1.000000000000e+006 1.040596500896e+006 1.041173528769e+006 1.023561687813e+006 1.001133386186e+006 1.035248849250e+006 1.000000699623e+006 1.000000700809e+006 1.040727813113e+006 1.078007057035e+006 1.002840960660e+006 1.047465533665e+006 1.035005872314e+006 1.076824191057e+006 1.051318767630e+006 1.062470138583e+006 1.019306302101e+006 1.007038012312e+006 1.008334470343e+006 1.029236665746e+006 1.074406161201e+006 1.032900691754e+006 1.074330186656e+006 1.002320614543e+006 1.001870931043e+006 1.051828941971e+006 1.001165062817e+006 1.000000000000e+006 1.000779711107e+006 1.000000000000e+006 1.000527783520e+006 1.024746322104e+006 1.000981045118e+006 1.060266997047e+006 1.000842279722e+006 1.015806797978e+006 1.000217432715e+006 1.033414678888e+006 1.017101073199e+006 1.074487551545e+006 1.074455590150e+006 1.074141238810e+006 1.074674213824e+006 1.000000000000e+006 1.000000000000e+006 1.000000000000e+006 1.000000000000e+006 1.077622459877e+006 1.000000000000e+006 1.000000000000e+006 1.081964022922e+006 1.077326616219e+006 1.074951428510e+006 1.014839533157e+006 1.000000000000e+006 1.021393830560e+006 1.028914911032e+006 1.000000194068e+006 1.000000194240e+006 1.000001714484e+006 1.000001717825e+006 1.074336614997e+006 1.076792024263e+006 1.000005115635e+006 1.000005104646e+006 1.000004048524e+006 1.000004057425e+006 1.077174227743e+006 1.075030551724e+006 
        </DataArray>
        <DataArray type="Float64" Name="MOLAR_FRACTION" format="ascii">