<?xml version="1.0"?>
<VTKFile type="UnstructuredGrid" version="0.1" byte_order="LittleEndian">
  <UnstructuredGrid>
    <Piece NumberOfPoints="963" NumberOfCells="1758">
      <Points>
        <DataArray type="Float64" NumberOfComponents="3" format="ascii">
          1.600262034769e+002 1.257989505921e+001 0.000000000000e+000
          1.635346199106e+002 2.000000000000e+001 0.000000000000e+000
          1.554515002484e+002 2.000000000000e+001 0.000000000000e+000
          3.459306441575e+000 1.667621982453e+001 0.000000000000e+000
          3.062266634850e+000 1.705413688405e+001 0.000000000000e+000
          2.873380769063e+000 1.650527725632e+001 0.000000000000e+000
          1.514088444034e+000 1.865189448105e+001 0.000000000000e+000
          1.967902677551e+000 1.834103489750e+001 0.000000000000e+000
          2.034564522234e+000 1.890806711991e+001 0.000000000000e+000
          2.478275273162e+000 1.702762299110e+001 0.000000000000e+000
          2.952621433467e+000 1.774357373580e+001 0.000000000000e+000
          2.237893542067e+000 1.782457469610e+001 0.000000000000e+000
          3.313583922780e+000 3.274674552047e+000 0.000000000000e+000
          2.561432712787e+000 3.156040447793e+000 0.000000000000e+000
          3.047531989640e+000 2.714594415171e+000 0.000000000000e+000
          2.750804692284e+000 3.936058190693e+000 0.000000000000e+000
          2.599039179818e+000 2.451529939148e+000 0.000000000000e+000
          3.139686649742e+000 2.186924052088e+000 0.000000000000e+000
          1.919984553221e+000 3.358010194268e+000 0.000000000000e+000
          1.960900304591e+000 2.773319745251e+000 0.000000000000e+000
          1.894565400391e+000 1.733316857565e+001 0.000000000000e+000
          0.000000000000e+000 1.538461538461e+001 0.000000000000e+000
          5.816229249735e-001 1.567919247147e+001 0.000000000000e+000
          0.000000000000e+000 1.589743589743e+001 0.000000000000e+000
          9.766405669483e+001 2.000000000000e+001 0.000000000000e+000
          1.010672711393e+002 1.500000000000e+001 0.000000000000e+000
          1.029329279907e+002 2.000000000000e+001 0.000000000000e+000
          9.588503785413e+001 1.500000000000e+001 0.000000000000e+000
          1.039231647117e+002 1.000000000000e+001 0.000000000000e+000
          9.860830811271e+001 1.000000000000e+001 0.000000000000e+000
          1.010672711397e+002 5.000000000000e+000 0.000000000000e+000
          9.766405669557e+001 0.000000000000e+000 0.000000000000e+000
          1.029329279915e+002 0.000000000000e+000 0.000000000000e+000
          9.588503785449e+001 5.000000000000e+000 0.000000000000e+000
          7.892434178002e+001 2.000000000000e+001 0.000000000000e+000
          8.173808356948e+001 1.500000000000e+001 0.000000000000e+000
          8.328058896910e+001 2.000000000000e+001 0.000000000000e+000
          7.679274808893e+001 1.514423393202e+001 0.000000000000e+000
          7.970503892166e+001 1.000000000000e+001 0.000000000000e+000
          8.409930620613e+001 1.000000000000e+001 0.000000000000e+000
          8.173808356980e+001 5.000000000000e+000 0.000000000000e+000
          7.892434178065e+001 0.000000000000e+000 0.000000000000e+000
          8.328058896976e+001 0.000000000000e+000 0.000000000000e+000
          7.679274808925e+001 4.855766067979e+000 0.000000000000e+000
          1.084583939765e+002 2.000000000000e+001 0.000000000000e+000
          1.122011528880e+002 1.500000000000e+001 0.000000000000e+000
          1.142529496098e+002 2.000000000000e+001 0.000000000000e+000
          1.065018792644e+002 1.500000000000e+001 0.000000000000e+000
          1.153419838410e+002 1.000000000000e+001 0.000000000000e+000
          1.094968549120e+002 1.000000000000e+001 0.000000000000e+000
          1.122011528884e+002 5.000000000000e+000 0.000000000000e+000
          1.084583939773e+002 0.000000000000e+000 0.000000000000e+000
          1.142529496106e+002 0.000000000000e+000 0.000000000000e+000
          1.065018792648e+002 5.000000000000e+000 0.000000000000e+000
          1.181779812237e+002 1.500000000000e+001 0.000000000000e+000
          1.203297004775e+002 2.000000000000e+001 0.000000000000e+000
          1.214717707847e+002 1.000000000000e+001 0.000000000000e+000
          1.181779812242e+002 5.000000000000e+000 0.000000000000e+000
          1.203297004784e+002 0.000000000000e+000 0.000000000000e+000
          7.477039199538e+001 2.000000000000e+001 0.000000000000e+000
          7.551483469771e+001 1.000000000000e+001 0.000000000000e+000
          7.296959467356e+001 1.385646386579e+001 0.000000000000e+000
          7.477039199599e+001 0.000000000000e+000 0.000000000000e+000
          7.296959467379e+001 6.143536134207e+000 0.000000000000e+000
          6.918477198508e+001 1.366665532880e+001 0.000000000000e+000
          6.746477463053e+001 1.000000000000e+001 0.000000000000e+000
          7.151921701478e+001 1.000000000000e+001 0.000000000000e+000
          6.918477198529e+001 6.333344671202e+000 0.000000000000e+000
          9.263986346551e+001 2.000000000000e+001 0.000000000000e+000
          9.094345943471e+001 1.500000000000e+001 0.000000000000e+000
          9.354026529380e+001 1.000000000000e+001 0.000000000000e+000
          9.263986346623e+001 0.000000000000e+000 0.000000000000e+000
          9.094345943506e+001 5.000000000000e+000 0.000000000000e+000
          1.244344522558e+002 1.503312574389e+001 0.000000000000e+000
          1.267023895482e+002 2.000000000000e+001 0.000000000000e+000
          1.285510028831e+002 1.020485663255e+001 0.000000000000e+000
          1.244344522563e+002 5.033125743893e+000 0.000000000000e+000
          1.267023895491e+002 0.000000000000e+000 0.000000000000e+000
          8.623136018348e+001 1.500000000000e+001 0.000000000000e+000
          8.784898578901e+001 2.000000000000e+001 0.000000000000e+000
          8.870757443665e+001 1.000000000000e+001 0.000000000000e+000
          8.623136018382e+001 5.000000000000e+000 0.000000000000e+000
          8.784898578969e+001 0.000000000000e+000 0.000000000000e+000
          4.872472752737e+000 0.000000000000e+000 0.000000000000e+000
          4.204479229380e+000 6.412840757122e-001 0.000000000000e+000
          4.157376851380e+000 0.000000000000e+000 0.000000000000e+000
          5.192892237051e+000 7.280355562789e-001 0.000000000000e+000
          1.306630304579e+000 6.212843344151e-001 0.000000000000e+000
          1.050228457081e+000 0.000000000000e+000 0.000000000000e+000
          1.614006202528e+000 0.000000000000e+000 0.000000000000e+000
          1.266763055794e+001 1.554696422866e+001 0.000000000000e+000
          1.263589100638e+001 1.657720348306e+001 0.000000000000e+000
          1.174268578662e+001 1.633018318031e+001 0.000000000000e+000
          6.588835695415e+000 7.505681085529e+000 0.000000000000e+000
          6.456871838389e+000 6.658671683861e+000 0.000000000000e+000
          7.208099140752e+000 7.038822846307e+000 0.000000000000e+000
          4.412623338166e+000 9.138856431549e+000 0.000000000000e+000
          4.024185797397e+000 8.708923235630e+000 0.000000000000e+000
          4.601447447338e+000 8.507292699647e+000 0.000000000000e+000
          5.325995059827e-001 6.308307298123e+000 0.000000000000e+000
          0.000000000000e+000 6.666666666655e+000 0.000000000000e+000
          0.000000000000e+000 6.153846153835e+000 0.000000000000e+000
          3.986461521768e+000 8.146114708182e+000 0.000000000000e+000
          2.411603373059e+000 6.510912162016e+000 0.000000000000e+000
          1.807525763324e+000 6.938080373464e+000 0.000000000000e+000
          1.686779352680e+000 6.178928843543e+000 0.000000000000e+000
          2.510760620997e+000 7.229076682239e+000 0.000000000000e+000
          3.166991983438e+000 6.906135870389e+000 0.000000000000e+000
          3.452788915829e+000 6.276851216781e+000 0.000000000000e+000
          3.340122000742e+000 5.656365440432e+000 0.000000000000e+000
          4.047936562877e+000 5.873561587395e+000 0.000000000000e+000
          1.802463974828e+000 1.292744708026e+001 0.000000000000e+000
          1.383967161336e+000 1.330299552906e+001 0.000000000000e+000
          1.329690820161e+000 1.266495373033e+001 0.000000000000e+000
          2.267922292389e+000 1.431116835808e+001 0.000000000000e+000
          2.854613987538e+000 1.466581611369e+001 0.000000000000e+000
          2.339869278674e+000 1.493776402241e+001 0.000000000000e+000
          4.690956878046e+000 3.115726773737e+000 0.000000000000e+000
          4.014773718330e+000 2.850429494150e+000 0.000000000000e+000
          4.643493383296e+000 2.293565471327e+000 0.000000000000e+000
          5.186083944243e+000 1.661927139510e+000 0.000000000000e+000
          5.452965511439e+000 2.679881546544e+000 0.000000000000e+000
          5.360460104304e+000 3.539902157655e+000 0.000000000000e+000
          6.197986304192e+000 3.115706366113e+000 0.000000000000e+000
          7.929356606585e-001 1.634705420870e+001 0.000000000000e+000
          1.222819867503e+000 1.599517159419e+001 0.000000000000e+000
          1.215723647926e+000 1.546209040954e+001 0.000000000000e+000
          1.770601276021e+000 1.521217632514e+001 0.000000000000e+000
          1.242830150061e+000 1.493919370237e+001 0.000000000000e+000
          1.166444124506e+000 4.610115997312e+000 0.000000000000e+000
          1.851620547934e+000 4.486892013458e+000 0.000000000000e+000
          1.494152702314e+000 5.145235789232e+000 0.000000000000e+000
          1.353088107040e+000 4.090803091641e+000 0.000000000000e+000
          3.802567455935e+000 5.084697985980e+000 0.000000000000e+000
          1.014840185783e+000 5.494768572296e+000 0.000000000000e+000
          8.831064584820e-001 5.109311190608e+000 0.000000000000e+000
          1.727903958959e+000 1.618384478933e+001 0.000000000000e+000
          1.343261525342e+000 1.651800241408e+001 0.000000000000e+000
          3.308120627291e+000 8.593311644828e+000 0.000000000000e+000
[...]
      <PointData Scalars="LIQUID_PRESSURE">
        <DataArray type="Float64" Name="LIQUID_PRESSURE" format="ascii">
          1.000000000000e+006 1.000000000000e+006 1.000000000000e+006 1.202437222049e+006 1.205215807419e+006 1.206443321962e+006 1.214574973652e+006 1.211683051582e+006 1.211290343546e+006 1.208753805507e+006 1.205963364118e+006 1.210124206453e+006 1.203551933229e+006 1.208299903742e+006 1.205317543856e+006 1.207208936401e+006 1.208055965888e+006 1.204723629283e+006 1.211974989279e+006 1.211713762127e+006 1.212119865299e+006 1.211002326520e+006 1.217659527595e+006 1.210997364368e+006 1.000000000000e+006 1.000000000000e+006 1.000000000000e+006 1.000000000001e+006 1.000000000000e+006 1.000000000000e+006 1.000000000000e+006 1.000000000000e+006 1.000000000000e+006 1.000000000001e+006 1.000000001652e+006 1.000000000458e+006 1.000000000276e+006 1.000000003729e+006 1.000000001080e+006 1.000000000166e+006 1.000000000458e+006 1.000000001652e+006 1.000000000276e+006 1.000000003729e+006 1.000000000000e+006 1.000000000000e+006 1.000000000000e+006 1.000000000000e+006 1.000000000000e+006 1.000000000000e+006 1.000000000000e+006 1.000000000000e+006 1.000000000000e+006 1.000000000000e+006 1.000000000000e+006 1.000000000000e+006 1.000000000000e+006 1.000000000000e+006 1.000000000000e+006 1.000000008687e+006 1.000000006190e+006 1.000000016969e+006 1.000000008686e+006 1.000000016969e+006 1.000000072810e+006 1.000000135027e+006 1.000000029335e+006 1.000000072807e+006 1.000000000004e+006 1.000000000007e+006 1.000000000002e+006 1.000000000004e+006 1.000000000007e+006 1.000000000000e+006 1.000000000000e+006 1.000000000000e+006 1.000000000000e+006 1.000000000000e+006 1.000000000065e+006 1.000000000039e+006 1.000000000021e+006 1.000000000065e+006 1.000000000038e+006 1.189343976442e+006 1.196160659845e+006 1.196479811421e+006 1.185879090265e+006 1.215979438530e+006 1.217503290833e+006 1.213914915596e+006 1.089660129737e+006 1.090063187559e+006 1.100584920010e+006 1.168945620303e+006 1.170655165085e+006 1.160854919880e+006 1.194084353352e+006 1.197738942628e+006 1.192207692498e+006 1.217182032863e+006 1.211039420551e+006 1.210940719981e+006 1.198124987202e+006 1.209115990710e+006 1.212677417274e+006 1.213459275292e+006 1.208566545705e+006 1.204566624893e+006 1.202456976603e+006 1.203338422995e+006 1.197574602517e+006 1.212704251499e+006 1.215420048500e+006 1.215759244477e+006 1.209940643547e+006 1.206550360370e+006 1.209537160192e+006 1.191275907231e+006 1.197839646249e+006 1.191761946927e+006 1.185940244459e+006 1.182887103522e+006 1.183949175200e+006 1.173910128936e+006 1.218038228665e+006 1.216555866432e+006 1.216552861187e+006 1.212892661768e+006 1.216268714370e+006 1.216714392278e+006 1.212386966556e+006 1.214711911867e+006 1.215598632398e+006 1.199681356298e+006 1.217482907397e+006 1.218078179411e+006 1.213183341178e+006 1.215675705119e+006 1.203551186895e+006 1.207614631320e+006 1.204787965315e+006 1.217895269664e+006 1.218026141600e+006 1.215994597246e+006 1.218201261997e+006 1.217666937586e+006 1.215214229391e+006 1.206134018058e+006 1.218029456642e+006 1.206241998061e+006 1.208222591679e+006 1.215243802319e+006 1.210977163338e+006 1.216073387125e+006 1.213353344101e+006 1.210643167597e+006 1.197443416234e+006 1.189340136337e+006 1.186179010883e+006 1.180901489655e+006 1.176388557073e+006 1.214928269872e+006 1.215177856443e+006 1.217699733728e+006 1.218111827384e+006 1.213215883348e+006 1.210962295814e+006 1.215463558911e+006 1.210993084297e+006 1.209760162447e+006 1.199768292855e+006 1.196166338939e+006 1.214951282100e+006 1.217168903906e+006 1.207694015333e+006 1.204620191661e+006 1.207067281822e+006 1.215768325300e+006 1.210905221478e+006 1.217481128714e+006 1.212307544247e+006 1.212608302058e+006 1.205625148527e+006 1.208822516066e+006 1.218070477068e+006 1.217873213818e+006 1.204560303218e+006 1.201862508596e+006 1.212941659637e+006 1.209993870610e+006 1.174903155647e+006 1.165128746018e+006 1.210221884317e+006 1.209880139293e+006 1.217986737494e+006 1.209920421429e+006 1.214704943542e+006 1.208384523745e+006 1.201589961133e+006 1.201743787165e+006 1.196419957120e+006 1.211590895661e+006 1.213359693672e+006 1.216430141801e+006 1.217776799793e+006 1.216446619030e+006 1.214169904437e+006 1.204110068463e+006 1.204804305660e+006 1.215197951925e+006 1.217262628828e+006 1.214219226065e+006 1.210948292109e+006 1.000000293408e+006 1.000000293399e+006 1.207670266027e+006 1.210090458999e+006 1.218048219018e+006 1.146959063927e+006 1.154931036303e+006 1.140657240348e+006 1.200305741009e+006 1.194221537066e+006 1.217530112045e+006 1.214739214750e+006 1.217765498308e+006 1.212467132238e+006 1.208632930422e+006 1.217778366797e+006 1.211803420522e+006 1.217077864293e+006 1.216753533715e+006 1.207493542028e+006 1.201912464382e+006 1.217748982195e+006 1.200821046851e+006 1.212426939357e+006 1.212767565407e+006 1.203252142305e+006 1.210129208245e+006 1.214076278169e+006 1.217504841593e+006 1.217289498125e+006 1.211065362244e+006 1.211059305504e+006 1.210955978671e+006 1.211016912768e+006 1.216512694377e+006 1.211050461950e+006 1.216383834492e+006 1.217585814524e+006 1.217836470481e+006 1.211149189697e+006 1.214626568214e+006 1.210999258778e+006 1.210986814692e+006 1.216691160003e+006 1.210928244516e+006 1.216984214949e+006 1.210945132905e+006 1.215781875112e+006 1.210952571694e+006 1.210938877649e+006 1.000001924562e+006 1.000000701145e+006 1.000000607810e+006 1.000002900938e+006 1.000000575409e+006 1.000001837511e+006 1.000000701101e+006 1.000001924440e+006 1.000000607769e+006 1.000002900773e+006 1.000000575381e+006 1.000001837428e+006 1.000014293671e+006 1.000008091764e+006 1.000005450265e+006 1.000020488413e+006 1.000005224453e+006 1.000013751497e+006 1.000008091338e+006 1.000014292900e+006 1.000005449945e+006 1.000020487426e+006 1.000005224235e+006 1.000013750969e+006 1.001662042709e+006 1.001230493874e+006 1.000999178895e+006 1.002009394498e+006 1.000976586589e+006 1.001628088085e+006 1.001230463447e+006 1.001662000985e+006 1.000999150554e+006 1.002009351018e+006 1.000976567422e+006 1.001628060568e+006 1.000572519773e+006 1.000399385097e+006 1.000311146166e+006 1.000719146011e+006 1.000302751174e+006 1.000558348503e+006 1.000399372456e+006 1.000572501470e+006 1.000311135002e+006 1.000719125828e+006 1.000302743500e+006 1.000558335980e+006 1.005982785133e+006 1.004915351531e+006 1.004057402162e+006 1.007007367207e+006 1.004915265225e+006 1.005982676700e+006 1.004057322196e+006 1.007007257176e+006 1.000159547635e+006 1.000103561535e+006 1.000076752213e+006 1.000209722870e+006 1.000074297033e+006 1.000154860342e+006 1.000103557441e+006 1.000159541242e+006 1.000076748796e+006 1.000209715430e+006 1.000074294684e+006 1.000154855942e+006 1.000034423178e+006 1.000047801789e+006 1.000033224220e+006 1.000034421486e+006 1.000047799696e+006 1.000033223059e+006 1.002647783891e+006 1.003401047849e+006 1.002599817207e+006 1.002647724969e+006 1.003400985773e+006 1.002599780334e+006 1.004016298935e+006 1.004016253318e+006 1.000023917124e+006 1.000041467156e+006 1.000017534974e+006 1.000055039603e+006 1.000023916655e+006 1.000055038625e+006 1.000791829751e+006 1.001120476730e+006 1.000649943928e+006 1.001342920159e+006 1.000791821023e+006 1.001342907487e+006 1.000009588707e+006 1.000006817844e+006 1.000009588502e+006 1.005350099381e+006 1.005946845658e+006 1.005946895238e+006 1.005350124940e+006 1.000090924229e+006 1.000117744634e+006 1.000117742753e+006 1.000444072222e+006 1.000357875088e+006 1.000444066617e+006 1.000235690898e+006 1.000186124054e+006 1.000235687535e+006 1.003392791477e+006 1.003392814333e+006 1.001841631164e+006 1.002176363775e+006 1.002176346779e+006 1.000003503065e+006 1.000002404590e+006 1.000003502983e+006 1.003067974645e+006 1.000001045782e+006 1.000000502193e+006 1.000001045757e+006 1.000000144802e+006 1.000000206797e+006 1.000000144813e+006 1.000000206808e+006 1.157489957284e+006 1.148828863140e+006 1.160506903852e+006 1.144499658915e+006 1.206759609465e+006 1.207785747813e+006 1.210310601048e+006 1.206732927174e+006 1.210314518481e+006 1.189609127753e+006 1.187575290690e+006 1.213921726054e+006 1.217114414083e+006 1.178958894128e+006 1.000000000000e+006 1.000000000000e+006 1.000000000000e+006 1.171255847151e+006 1.160514231399e+006 1.164134629376e+006 1.169506443146e+006 1.198637701852e+006 1.208328701796e+006 1.217194528260e+006 1.198399630776e+006 1.214110197728e+006 1.209472584641e+006 1.213117280840e+006 1.157558772544e+006 1.156980192463e+006 1.145160225041e+006 1.209648738281e+006 1.205674260167e+006 1.211094461776e+006 1.216960560089e+006 1.210906685406e+006 1.148809260690e+006 1.158024520189e+006 1.158050575639e+006 1.163770129780e+006 1.151075711871e+006 1.170610586195e+006 1.144505718725e+006 1.131767171459e+006 1.138400226416e+006 1.144494676680e+006 1.217761866975e+006 1.198075065519e+006 1.199801974376e+006 1.203539892737e+006 1.144829809464e+006 1.138221723625e+006 1.131074481989e+006 1.125721834364e+006 1.201820049942e+006 1.206670979174e+006 1.104460677293e+006 1.102069310451e+006 1.113543342225e+006 1.163563264682e+006 1.169932043632e+006 1.089920525366e+006 1.104734706992e+006 1.096853333592e+006 1.194858093968e+006 1.180594434498e+006 1.174901837186e+006 1.076540871815e+006 1.077886888248e+006 1.213559097150e+006 1.216452384064e+006 1.157399249058e+006 1.169142529421e+006 1.153059983513e+006 1.156675112956e+006 1.144600192937e+006 1.143451115639e+006 1.179557326405e+006 1.119900711142e+006 1.125815459353e+006 1.102219305031e+006 1.093678949118e+006 1.088111998427e+006 1.132095522123e+006 1.084886578329e+006 1.094534986502e+006 1.097509744857e+006 1.080395252277e+006 1.195642704755e+006 1.198267586248e+006 1.119294961224e+006 1.129044167217e+006 1.184274384222e+006 1.203685642087e+006 1.189633857347e+006 1.191755573301e+006 1.217393384575e+006 1.217888238986e+006 1.207708822176e+006 1.210644312517e+006 1.174546262472e+006 1.179706229828e+006 1.143109836736e+006 1.135403813225e+006 1.130430849799e+006 1.149477103592e+006 1.137783458036e+006 1.130181641974e+006 1.146580804529e+006 1.175698961249e+006 1.176028767251e+006 1.182004414670e+006 1.151181603270e+006 1.189156791352e+006 1.167380807496e+006 1.188041642824e+006 1.183741347594e+006 1.117904862307e+006 1.105759894637e+006 1.113457958487e+006 1.194842693698e+006 1.200719463888e+006 1.184445131963e+006 1.139606821075e+006 1.191367010167e+006 1.109005600460e+006 1.114837485841e+006 1.217678331529e+006 1.216991473197e+006 1.193258023420e+006 1.187907369910e+006 1.193640275861e+006 1.167288854192e+006 1.191014113859e+006 1.151326849827e+006 1.140191523896e+006 1.211725304262e+006 1.202688930508e+006 1.205214834648e+006 1.197693614656e+006 1.161230653725e+006 1.157274819554e+006 1.160424335863e+006 1.167777146997e+006 1.187838409884e+006 1.213356506422e+006 1.209400877476e+006 1.123626347285e+006 1.130122412391e+006 1.132921013875e+006 1.120373503328e+006 1.176196262130e+006 1.106652417003e+006 1.092689662027e+006 1.096943402242e+006 1.178080761437e+006 1.194859858128e+006 1.210529666984e+006 1.154932439133e+006 1.123472132596e+006 1.118362647718e+006 1.110881130177e+006 1.130443108837e+006 1.130349420894e+006 1.210854397030e+006 1.212785894315e+006 1.206963424235e+006 1.114019194706e+006 1.108208779684e+006 1.166024079615e+006 1.173720429189e+006 1.174424985325e+006 1.117609896334e+006 1.129608908782e+006 1.125624749853e+006 1.210917794074e+006 1.217317755311e+006 1.215629429067e+006 1.198607552467e+006 1.200371273394e+006 1.122500857883e+006 1.137324747016e+006 1.182387079026e+006 1.217186801577e+006 1.217835668142e+006 1.141098739454e+006 1.131436892641e+006 1.134915617971e+006 1.207215994651e+006 1.160909028704e+006 1.192185092317e+006 1.119685293789e+006 1.181710145790e+006 1.208942724753e+006 1.206368116951e+006 1.211407554745e+006 1.150107843948e+006 1.107788527470e+006 1.206598358636e+006 1.203456402413e+006 1.139847531951e+006 1.099548588547e+006 1.110258963421e+006 1.205032432305e+006 1.217142486004e+006 1.215915432460e+006 1.125521144266e+006 1.120013567082e+006 1.112489832226e+006 1.000000000000e+006 1.000000000000e+006 1.000000000000e+006 1.148256623245e+006 1.216720049353e+006 1.208733793555e+006 1.207875594841e+006 1.205392266665e+006 1.193030155524e+006 1.148613357170e+006 1.202258133839e+006 1.191991616512e+006 1.187615503329e+006 1.000000051566e+006 1.000000051570e+006 1.216902350629e+006 1.211010355338e+006 1.213861797380e+006 1.187712341072e+006 1.132794433960e+006 1.180472930935e+006 1.138709877332e+006 1.218083740519e+006 1.163703253968e+006 1.214770826760e+006 1.115028736653e+006 1.117188371279e+006 1.157969139250e+006 1.000000000000e+006 1.000000000000e+006 1.197703620730e+006 1.181380519011e+006 1.184392116977e+006 1.175190081187e+006 1.151606953407e+006 1.217596746406e+006 1.008009433829e+006 1.007765353989e+006 1.008009404683e+006 1.007765345337e+006 1.202459058071e+006 1.218105746117e+006 1.152530895177e+006 1.217594346236e+006 1.007155857421e+006 1.006205504524e+006 1.004966624311e+006 1.006205511642e+006 1.108646898143e+006 1.099798826815e+006 1.215070055716e+006 1.115454098069e+006 1.200834484494e+006 1.204119084232e+006 1.196748040910e+006 1.193835160124e+006 1.217289430052e+006 1.217862609743e+006 1.210866012537e+006 1.216642651214e+006 1.091067847192e+006 1.105337090303e+006 1.000000000000e+006 1.000000000000e+006 1.216141757484e+006 1.211367570394e+006 1.198371006187e+006 1.208698463539e+006 1.142699485518e+006 1.216282374913e+006 1.151806551948e+006 1.000000038507e+006 1.000000038504e+006 1.082484959725e+006 1.173392705785e+006 1.069953283808e+006 1.062855359822e+006 1.057824372281e+006 1.108463475866e+006 1.196807614475e+006 1.199389941770e+006 1.095164289558e+006 1.000000000000e+006 1.000000000000e+006 1.084283473011e+006 1.211080032865e+006 1.211037957450e+006 1.098123795648e+006 1.210940275111e+006 1.216018180779e+006 1.210933732622e+006 1.103292767791e+006 1.011663180907e+006 1.009601407250e+006 1.009269852596e+006 1.013811221369e+006 1.012972157634e+006 1.009601397302e+006 1.013811178867e+006 1.012972095091e+006 1.015714905075e+006 1.018403098646e+006 1.016736481850e+006 1.018403081351e+006 1.016736303160e+006 1.020710254783e+006 1.023946338074e+006 1.021937781598e+006 1.023945742848e+006 1.021938076379e+006 1.026692803043e+006 1.030516295045e+006 1.028145016028e+006 1.030511245566e+006 1.028144701816e+006 1.033717381178e+006 1.038186123239e+006 1.035410317481e+006 1.038155866599e+006 1.035402932804e+006 1.041828636081e+006 1.047110623313e+006 1.043819047482e+006 1.046965296963e+006 1.043756711025e+006 1.010491613709e+006 1.010829056277e+006 1.014021552318e+006 1.015170443652e+006 1.010829036531e+006 1.010491637884e+006 1.014021509545e+006 1.015170344862e+006 1.018652168137e+006 1.020060996651e+006 1.018652354966e+006 1.020061099333e+006 1.024245325992e+006 1.025926031271e+006 1.024245740139e+006 1.025925117907e+006 1.030858979280e+006 1.032840008376e+006 1.030859316169e+006 1.032831222755e+006 1.023072123417e+006 1.027045903784e+006 1.021032388866e+006 1.029426331463e+006 1.019531881263e+006 1.025882557104e+006 1.027047307929e+006 1.023072774096e+006 1.021033048411e+006 1.029427545375e+006 1.019532113296e+006 1.025882714477e+006 1.034114376858e+006 1.036934080060e+006 1.032793847112e+006 1.034117709615e+006 1.036936709807e+006 1.032793324318e+006 1.042249048450e+006 1.045728269593e+006 1.040872332750e+006 1.042257028884e+006 1.045737403718e+006 1.040867175685e+006 1.051452587105e+006 1.056534063373e+006 1.049442882494e+006 1.051464295262e+006 1.056446707024e+006 1.049981332819e+006 1.061683638246e+006 1.068001555945e+006 1.061689492495e+006 1.067332572048e+006 1.038550069875e+006 1.040905126112e+006 1.038546821376e+006 1.040850331017e+006 1.012567818032e+006 1.008094526644e+006 1.010120225440e+006 1.012567885691e+006 1.008094601504e+006 1.010120371550e+006 1.016759828063e+006 1.014478711736e+006 1.016759846567e+006 1.014478913878e+006 1.021982529266e+006 1.021982424173e+006 1.028203374566e+006 1.028202996618e+006 1.035534646124e+006 1.035533671468e+006 1.123358043050e+006 1.136426358903e+006 1.123550517393e+006 1.216765118231e+006 1.044200117385e+006 1.044197170168e+006 1.072871779045e+006 1.072873791036e+006 1.051100154371e+006 1.057650548261e+006 1.053759705003e+006 1.057185106490e+006 1.053300528578e+006 1.047423159455e+006 1.050419136124e+006 1.047391030183e+006 1.050136278365e+006 1.052869381362e+006 1.110460533480e+006 1.053775836800e+006 1.123543703829e+006 1.136423673680e+006 1.079714497297e+006 1.084887170859e+006 1.057582443082e+006 1.065619652847e+006 1.061242311783e+006 1.060991165493e+006 1.061811209120e+006 1.067294835860e+006 1.067138279634e+006 1.068921577313e+006 1.066084920486e+006 1.074605090394e+006 1.071560737630e+006 1.074320902770e+006 1.067576944995e+006 1.074525525501e+006 1.081858228302e+006 1.167869172009e+006 1.117249567390e+006 1.081030706921e+006 1.177061642844e+006 1.217031210951e+006 1.079225500504e+006 1.000000000000e+006 1.000000000000e+006 1.000000000000e+006 1.163878959319e+006 1.170346303009e+006 1.177523639732e+006 1.172401915527e+006 1.165099968735e+006 1.202312821017e+006 1.211035008655e+006 1.176648865414e+006 1.211049164885e+006 1.158974429130e+006 1.097480164564e+006 1.093681913394e+006 1.202086974388e+006 1.187790397023e+006 1.089686779474e+006 1.083276852386e+006 1.167918342037e+006 1.087602617714e+006 1.090117505148e+006 1.126748764716e+006 1.108155428918e+006 1.058877028329e+006 1.164257122408e+006 1.000000017231e+006 1.000000017233e+006 1.195087223262e+006 1.004468232193e+006 1.004468220712e+006 1.073875230024e+006 1.187859404280e+006 1.168751015211e+006 1.072693329818e+006 1.179861734841e+006 1.182704244681e+006 1.214532915274e+006 1.064387424807e+006 1.066635107506e+006 1.065227686020e+006 1.152500135800e+006 1.000000000000e+006 1.000000000000e+006 1.138333858736e+006 1.105008100113e+006 1.000000000000e+006 1.210845616169e+006 1.217340799731e+006 1.211030346813e+006 1.078140070861e+006 1.161981450945e+006 1.000000000000e+006 1.196305826254e+006 1.196494023727e+006 1.180897649973e+006 1.091534658477e+006 1.192428473697e+006 1.008539624232e+006 1.008539775120e+006 1.196342160484e+006 1.215893118075e+006 1.116235496443e+006 1.200167781157e+006 1.192130647324e+006 1.214305224056e+006 1.202054590283e+006 1.206481133983e+006 1.175016107915e+006 1.143407873687e+006 1.148833272836e+006 1.187301731054e+006 1.211073638927e+006 1.190565256773e+006 1.211124658684e+006 1.110464255737e+006 1.104430727609e+006 1.202347147977e+006 1.092142916143e+006 1.000000000000e+006 1.082636644711e+006 1.000000000000e+006 1.074051344606e+006 1.182284479784e+006 1.088072680546e+006 1.205738425447e+006 1.084214649727e+006 1.168782816259e+006 1.057187106428e+006 1.190827720709e+006 1.171248064259e+006 1.210856320711e+006 1.210971008894e+006 1.211146429333e+006 1.211018587745e+006 1.000000000000e+006 1.000000000000e+006 1.000000000000e+006 1.000000000000e+006 1.215489441805e+006 1.000000000000e+006 1.000000000000e+006 1.217955323804e+006 1.215146866621e+006 1.211344006803e+006 1.166799155394e+006 1.000000000000e+006 1.178113663299e+006 1.186795561285e+006 1.005330174704e+006 1.005330247708e+006 1.011828108024e+006 1.011828331528e+006 1.211062449212e+006 1.214336776640e+006 1.017273863382e+006 1.017273493228e+006 1.015963959192e+006 1.015964313170e+006 1.215078290321e+006 1.211346253264e+006 
        </DataArray>
        <DataArray type="Float64" Name="MOLAR_FRACTION" format="ascii">