<?xml version="1.0"?>
<VTKFile type="UnstructuredGrid" version="0.1" byte_order="LittleEndian">
  <UnstructuredGrid>
    <Piece NumberOfPoints="963" NumberOfCells="1758">
      <Points>
        <DataArray type="Float64" NumberOfComponents="3" format="ascii">
          1.600262034769e+002 1.257989505921e+001 0.000000000000e+000
          1.635346199106e+002 2.000000000000e+001 0.000000000000e+000
          1.554515002484e+002 2.000000000000e+001 0.000000000000e+000
          3.459306441575e+000 1.667621982453e+001 0.000000000000e+000
          3.062266634850e+000 1.705413688405e+001 0.000000000000e+000
          2.873380769063e+000 1.650527725632e+001 0.000000000000e+000
          1.514088444034e+000 1.865189448105e+001 0.000000000000e+000
          1.967902677551e+000 1.834103489750e+001 0.000000000000e+000
          2.034564522234e+000 1.890806711991e+001 0.000000000000e+000
          2.478275273162e+000 1.702762299110e+001 0.000000000000e+000
          2.952621433467e+000 1.774357373580e+001 0.000000000000e+000
          2.237893542067e+000 1.782457469610e+001 0.000000000000e+000
          3.313583922780e+000 3.274674552047e+000 0.000000000000e+000
          2.561432712787e+000 3.156040447793e+000 0.000000000000e+000
          3.047531989640e+000 2.714594415171e+000 0.000000000000e+000
          2.750804692284e+000 3.936058190693e+000 0.000000000000e+000
          2.599039179818e+000 2.451529939148e+000 0.000000000000e+000
          3.139686649742e+000 2.186924052088e+000 0.000000000000e+000
          1.919984553221e+000 3.358010194268e+000 0.000000000000e+000
          1.960900304591e+000 2.773319745251e+000 0.000000000000e+000
          1.894565400391e+000 1.733316857565e+001 0.000000000000e+000
          0.000000000000e+000 1.538461538461e+001 0.000000000000e+000
          5.816229249735e-001 1.567919247147e+001 0.000000000000e+000
          0.000000000000e+000 1.589743589743e+001 0.000000000000e+000
          9.766405669483e+001 2.000000000000e+001 0.000000000000e+000
          1.010672711393e+002 1.500000000000e+001 0.000000000000e+000
          1.029329279907e+002 2.000000000000e+001 0.000000000000e+000
          9.588503785413e+001 1.500000000000e+001 0.000000000000e+000
          1.039231647117e+002 1.000000000000e+001 0.000000000000e+000
          9.860830811271e+001 1.000000000000e+001 0.000000000000e+000
          1.010672711397e+002 5.000000000000e+000 0.000000000000e+000
          9.766405669557e+001 0.000000000000e+000 0.000000000000e+000
          1.029329279915e+002 0.000000000000e+000 0.000000000000e+000
          9.588503785449e+001 5.000000000000e+000 0.000000000000e+000
          7.892434178002e+001 2.000000000000e+001 0.000000000000e+000
          8.173808356948e+001 1.500000000000e+001 0.000000000000e+000
          8.328058896910e+001 2.000000000000e+001 0.000000000000e+000
          7.679274808893e+001 1.514423393202e+001 0.000000000000e+000
          7.970503892166e+001 1.000000000000e+001 0.000000000000e+000
          8.409930620613e+001 1.000000000000e+001 0.000000000000e+000
          8.173808356980e+001 5.000000000000e+000 0.000000000000e+000
          7.892434178065e+001 0.000000000000e+000 0.000000000000e+000
          8.328058896976e+001 0.000000000000e+000 0.000000000000e+000
          7.679274808925e+001 4.855766067979e+000 0.000000000000e+000
          1.084583939765e+002 2.000000000000e+001 0.000000000000e+000
          1.122011528880e+002 1.500000000000e+001 0.000000000000e+000
          1.142529496098e+002 2.000000000000e+001 0.000000000000e+000
          1.065018792644e+002 1.500000000000e+001 0.000000000000e+000
          1.153419838410e+002 1.000000000000e+001 0.000000000000e+000
          1.094968549120e+002 1.000000000000e+001 0.000000000000e+000
          1.122011528884e+002 5.000000000000e+000 0.000000000000e+000
          1.084583939773e+002 0.000000000000e+000 0.000000000000e+000
          1.142529496106e+002 0.000000000000e+000 0.000000000000e+000
          1.065018792648e+002 5.000000000000e+000 0.000000000000e+000
          1.181779812237e+002 1.500000000000e+001 0.000000000000e+000
          1.203297004775e+002 2.000000000000e+001 0.000000000000e+000
          1.214717707847e+002 1.000000000000e+001 0.000000000000e+000
          1.181779812242e+002 5.000000000000e+000 0.000000000000e+000
          1.203297004784e+002 0.000000000000e+000 0.000000000000e+000
          7.477039199538e+001 2.000000000000e+001 0.000000000000e+000
          7.551483469771e+001 1.000000000000e+001 0.000000000000e+000
          7.296959467356e+001 1.385646386579e+001 0.000000000000e+000
          7.477039199599e+001 0.000000000000e+000 0.000000000000e+000
          7.296959467379e+001 6.143536134207e+000 0.000000000000e+000
          6.918477198508e+001 1.366665532880e+001 0.000000000000e+000
          6.746477463053e+001 1.000000000000e+001 0.000000000000e+000
          7.151921701478e+001 1.000000000000e+001 0.000000000000e+000
          6.918477198529e+001 6.333344671202e+000 0.000000000000e+000
          9.263986346551e+001 2.000000000000e+001 0.000000000000e+000
          9.094345943471e+001 1.500000000000e+001 0.000000000000e+000
          9.354026529380e+001 1.000000000000e+001 0.000000000000e+000
          9.263986346623e+001 0.000000000000e+000 0.000000000000e+000
          9.094345943506e+001 5.000000000000e+000 0.000000000000e+000
          1.244344522558e+002 1.503312574389e+001 0.000000000000e+000
          1.267023895482e+002 2.000000000000e+001 0.000000000000e+000
          1.285510028831e+002 1.020485663255e+001 0.000000000000e+000
          1.244344522563e+002 5.033125743893e+000 0.000000000000e+000
          1.267023895491e+002 0.000000000000e+000 0.000000000000e+000
          8.623136018348e+001 1.500000000000e+001 0.000000000000e+000
          8.784898578901e+001 2.000000000000e+001 0.000000000000e+000
          8.870757443665e+001 1.000000000000e+001 0.000000000000e+000
          8.623136018382e+001 5.000000000000e+000 0.000000000000e+000
          8.784898578969e+001 0.000000000000e+000 0.000000000000e+000
          4.872472752737e+000 0.000000000000e+000 0.000000000000e+000
          4.204479229380e+000 6.412840757122e-001 0.000000000000e+000
          4.157376851380e+000 0.000000000000e+000 0.000000000000e+000
          5.192892237051e+000 7.280355562789e-001 0.000000000000e+000
          1.306630304579e+000 6.212843344151e-001 0.000000000000e+000
          1.050228457081e+000 0.000000000000e+000 0.000000000000e+000
          1.614006202528e+000 0.000000000000e+000 0.000000000000e+000
          1.266763055794e+001 1.554696422866e+001 0.000000000000e+000
          1.263589100638e+001 1.657720348306e+001 0.000000000000e+000
          1.174268578662e+001 1.633018318031e+001 0.000000000000e+000
          6.588835695415e+000 7.505681085529e+000 0.000000000000e+000
          6.456871838389e+000 6.658671683861e+000 0.000000000000e+000
          7.208099140752e+000 7.038822846307e+000 0.000000000000e+000
          4.412623338166e+000 9.138856431549e+000 0.000000000000e+000
          4.024185797397e+000 8.708923235630e+000 0.000000000000e+000
          4.601447447338e+000 8.507292699647e+000 0.000000000000e+000
          5.325995059827e-001 6.308307298123e+000 0.000000000000e+000
          0.000000000000e+000 6.666666666655e+000 0.000000000000e+000
          0.000000000000e+000 6.153846153835e+000 0.000000000000e+000
          3.986461521768e+000 8.146114708182e+000 0.000000000000e+000
          2.411603373059e+000 6.510912162016e+000 0.000000000000e+000
          1.807525763324e+000 6.938080373464e+000 0.000000000000e+000
          1.686779352680e+000 6.178928843543e+000 0.000000000000e+000
          2.510760620997e+000 7.229076682239e+000 0.000000000000e+000
          3.166991983438e+000 6.906135870389e+000 0.000000000000e+000
          3.452788915829e+000 6.276851216781e+000 0.000000000000e+000
          3.340122000742e+000 5.656365440432e+000 0.000000000000e+000
          4.047936562877e+000 5.873561587395e+000 0.000000000000e+000
          1.802463974828e+000 1.292744708026e+001 0.000000000000e+000
          1.383967161336e+000 1.330299552906e+001 0.000000000000e+000
          1.329690820161e+000 1.266495373033e+001 0.000000000000e+000
          2.267922292389e+000 1.431116835808e+001 0.000000000000e+000
          2.854613987538e+000 1.466581611369e+001 0.000000000000e+000
          2.339869278674e+000 1.493776402241e+001 0.000000000000e+000
          4.690956878046e+000 3.115726773737e+000 0.000000000000e+000
          4.014773718330e+000 2.850429494150e+000 0.000000000000e+000
          4.643493383296e+000 2.293565471327e+000 0.000000000000e+000
          5.186083944243e+000 1.661927139510e+000 0.000000000000e+000
          5.452965511439e+000 2.679881546544e+000 0.000000000000e+000
          5.360460104304e+000 3.539902157655e+000 0.000000000000e+000
          6.197986304192e+000 3.115706366113e+000 0.000000000000e+000
          7.929356606585e-001 1.634705420870e+001 0.000000000000e+000
          1.222819867503e+000 1.599517159419e+001 0.000000000000e+000
          1.215723647926e+000 1.546209040954e+001 0.000000000000e+000
          1.770601276021e+000 1.521217632514e+001 0.000000000000e+000
          1.242830150061e+000 1.493919370237e+001 0.000000000000e+000
          1.166444124506e+000 4.610115997312e+000 0.000000000000e+000
          1.851620547934e+000 4.486892013458e+000 0.000000000000e+000
          1.494152702314e+000 5.145235789232e+000 0.000000000000e+000
          1.353088107040e+000 4.090803091641e+000 0.000000000000e+000
          3.802567455935e+000 5.084697985980e+000 0.000000000000e+000
          1.014840185783e+000 5.494768572296e+000 0.000000000000e+000
          8.831064584820e-001 5.109311190608e+000 0.000000000000e+000
          1.727903958959e+000 1.618384478933e+001 0.000000000000e+000
          1.343261525342e+000 1.651800241408e+001 0.000000000000e+000
          3.308120627291e+000 8.593311644828e+000 0.000000000000e+000
[...]
      <PointData Scalars="LIQUID_PRESSURE">
        <DataArray type="Float64" Name="LIQUID_PRESSURE" format="ascii">
          1.000000000000e+006 1.000000000000e+006 1.000000000000e+006 1.210216800228e+006 1.213249631182e+006 1.214635751243e+006 1.220359592239e+006 1.219539955392e+006 1.219299820287e+006 1.217186877835e+006 1.214080692249e+006 1.218431082827e+006 1.211396113155e+006 1.216703912488e+006 1.213366769200e+006 1.215460204298e+006 1.216442850469e+006 1.212705138997e+006 1.219688700214e+006 1.219606506818e+006 1.219768967479e+006 1.228907969750e+006 1.221655270179e+006 1.228903436245e+006 1.000000000001e+006 1.000000000000e+006 1.000000000000e+006 1.000000000003e+006 1.000000000000e+006 1.000000000001e+006 1.000000000000e+006 1.000000000001e+006 1.000000000000e+006 1.000000000003e+006 1.000000004571e+006 1.000000001355e+006 1.000000000821e+006 1.000000009977e+006 1.000000003075e+006 1.000000000513e+006 1.000000001355e+006 1.000000004571e+006 1.000000000821e+006 1.000000009977e+006 1.000000000000e+006 1.000000000000e+006 1.000000000000e+006 1.000000000000e+006 1.000000000000e+006 1.000000000000e+006 1.000000000000e+006 1.000000000000e+006 1.000000000000e+006 1.000000000000e+006 1.000000000000e+006 1.000000000000e+006 1.000000000000e+006 1.000000000000e+006 1.000000000000e+006 1.000000022346e+006 1.000000016228e+006 1.000000042373e+006 1.000000022344e+006 1.000000042372e+006 1.000000169406e+006 1.000000305289e+006 1.000000071515e+006 1.000000169400e+006 1.000000000015e+006 1.000000000026e+006 1.000000000008e+006 1.000000000015e+006 1.000000000026e+006 1.000000000000e+006 1.000000000000e+006 1.000000000000e+006 1.000000000000e+006 1.000000000000e+006 1.000000000208e+006 1.000000000124e+006 1.000000000071e+006 1.000000000208e+006 1.000000000124e+006 1.197369945014e+006 1.203888923447e+006 1.204232495951e+006 1.194064883730e+006 1.220370746028e+006 1.220168877125e+006 1.220305341583e+006 1.098057698205e+006 1.098470010072e+006 1.109303367225e+006 1.177712537917e+006 1.179384389309e+006 1.169785047378e+006 1.201903590567e+006 1.205451669827e+006 1.200101381304e+006 1.222188684445e+006 1.228863827111e+006 1.228973946473e+006 1.205813362128e+006 1.217665528860e+006 1.220080193263e+006 1.220257622879e+006 1.217057886062e+006 1.212543866638e+006 1.210260796042e+006 1.211184005734e+006 1.205281477199e+006 1.219929830176e+006 1.220438598236e+006 1.220401458575e+006 1.218300303234e+006 1.214754514082e+006 1.217943627389e+006 1.199215091954e+006 1.205547715842e+006 1.199681307054e+006 1.194125579183e+006 1.191204772921e+006 1.192223143155e+006 1.182549004518e+006 1.220608913088e+006 1.220239745723e+006 1.220279364384e+006 1.220077666886e+006 1.220385659579e+006 1.220390283940e+006 1.219913363506e+006 1.220397723360e+006 1.220397536472e+006 1.207386812259e+006 1.220321601295e+006 1.220312953724e+006 1.220091352545e+006 1.220381037079e+006 1.211416115972e+006 1.215970057118e+006 1.212768167086e+006 1.220578500221e+006 1.220619591376e+006 1.220358842849e+006 1.220594494907e+006 1.220403649615e+006 1.220407666387e+006 1.214276779804e+006 1.220539060989e+006 1.214438547559e+006 1.216624813296e+006 1.224343305760e+006 1.228903394859e+006 1.220363691322e+006 1.220158743674e+006 1.218869801548e+006 1.205169755639e+006 1.197370183920e+006 1.194354524551e+006 1.189299202681e+006 1.184948218370e+006 1.220395803237e+006 1.220398163948e+006 1.220438491966e+006 1.220265936625e+006 1.220158283111e+006 1.228923354576e+006 1.224120944861e+006 1.228897260072e+006 1.218126609973e+006 1.207481590953e+006 1.203910276712e+006 1.220345367704e+006 1.220245583363e+006 1.216055684898e+006 1.212596590717e+006 1.215350131073e+006 1.223788028800e+006 1.229005871299e+006 1.220147824228e+006 1.219796685164e+006 1.219905787340e+006 1.213703989240e+006 1.217244759337e+006 1.220501034897e+006 1.220987227583e+006 1.212526528970e+006 1.209626252612e+006 1.220092462891e+006 1.218301147670e+006 1.183512822619e+006 1.173984723643e+006 1.218542896404e+006 1.218189479218e+006 1.220187674699e+006 1.218266086915e+006 1.220358449793e+006 1.216854187042e+006 1.209340871526e+006 1.209481415956e+006 1.204165915950e+006 1.219554906243e+006 1.220156351003e+006 1.220309056231e+006 1.220239440798e+006 1.220184561355e+006 1.220315137881e+006 1.212022822595e+006 1.212786855035e+006 1.220382000961e+006 1.220267205327e+006 1.220314597315e+006 1.219042886862e+006 1.000000636432e+006 1.000000636417e+006 1.215995807905e+006 1.218414027351e+006 1.220120342971e+006 1.156049366659e+006 1.163948614920e+006 1.149781354860e+006 1.208002554688e+006 1.202038440498e+006 1.220179765910e+006 1.220354482842e+006 1.220379546978e+006 1.219909090942e+006 1.217057679501e+006 1.220424860269e+006 1.219582753166e+006 1.220164811126e+006 1.220019724899e+006 1.215786744099e+006 1.209680291633e+006 1.221379344122e+006 1.208547893848e+006 1.219920764692e+006 1.220109615213e+006 1.211083712074e+006 1.218573289688e+006 1.220309792175e+006 1.221825562886e+006 1.222030376906e+006 1.228836531656e+006 1.228813009432e+006 1.228945996944e+006 1.228882969465e+006 1.223010643612e+006 1.228817827228e+006 1.223125156044e+006 1.220209443254e+006 1.221273920910e+006 1.228718569687e+006 1.225021173069e+006 1.228873588766e+006 1.228902424403e+006 1.222737646432e+006 1.228934077959e+006 1.222385087215e+006 1.228918115941e+006 1.223764286782e+006 1.228925543577e+006 1.228937791330e+006 1.000003774977e+006 1.000001457931e+006 1.000001267755e+006 1.000005573188e+006 1.000001202419e+006 1.000003613296e+006 1.000001457860e+006 1.000003774795e+006 1.000001267690e+006 1.000005572947e+006 1.000001202375e+006 1.000003613171e+006 1.000025183161e+006 1.000014708887e+006 1.000010117707e+006 1.000035402913e+006 1.000009722157e+006 1.000024283713e+006 1.000014708307e+006 1.000025182149e+006 1.000010117259e+006 1.000035401647e+006 1.000009721851e+006 1.000024283018e+006 1.002242618522e+006 1.001688937749e+006 1.001387366043e+006 1.002683179278e+006 1.001357976875e+006 1.002199622789e+006 1.001688908862e+006 1.002242579991e+006 1.001387338612e+006 1.002683139969e+006 1.001357958313e+006 1.002199597459e+006 1.000820369834e+006 1.000584213568e+006 1.000461511816e+006 1.001017476576e+006 1.000449850178e+006 1.000801356420e+006 1.000584200383e+006 1.000820351275e+006 1.000461499951e+006 1.001017456488e+006 1.000449842003e+006 1.000801343699e+006 1.007519878147e+006 1.006244438651e+006 1.005209130930e+006 1.008732934336e+006 1.006244368423e+006 1.007519791001e+006 1.005209063886e+006 1.008732849088e+006 1.000245763218e+006 1.000163504803e+006 1.000123198624e+006 1.000318182334e+006 1.000119500843e+006 1.000238996308e+006 1.000163500095e+006 1.000245756085e+006 1.000123194613e+006 1.000318174192e+006 1.000119498078e+006 1.000238991388e+006 1.000057782337e+006 1.000078811996e+006 1.000055891029e+006 1.000057780241e+006 1.000078809458e+006 1.000055889587e+006 1.003480900813e+006 1.004410490711e+006 1.003421531950e+006 1.003480848949e+006 1.004410438011e+006 1.003421499946e+006 1.005159523941e+006 1.005159487451e+006 1.000040959687e+006 1.000068856221e+006 1.000030532018e+006 1.000090002086e+006 1.000040959092e+006 1.000090000913e+006 1.001114140965e+006 1.001545826131e+006 1.000924575456e+006 1.001834149305e+006 1.001114132359e+006 1.001834137436e+006 1.000017262204e+006 1.000012495933e+006 1.000017261927e+006 1.006767780528e+006 1.007476270694e+006 1.007476305100e+006 1.006767797178e+006 1.000144508487e+006 1.000184506042e+006 1.000184503897e+006 1.000645596390e+006 1.000526534291e+006 1.000645590591e+006 1.000355149644e+006 1.000284133734e+006 1.000355145995e+006 1.004399786415e+006 1.004399804959e+006 1.002471143199e+006 1.002893169549e+006 1.002893154574e+006 1.000006658436e+006 1.000004660775e+006 1.000006658319e+006 1.004002083007e+006 1.000002119019e+006 1.000001064962e+006 1.000002118980e+006 1.000000328548e+006 1.000000455759e+006 1.000000328568e+006 1.000000455779e+006 1.166470322414e+006 1.157904082110e+006 1.169441929914e+006 1.153606831770e+006 1.214985889695e+006 1.216152758129e+006 1.218582725018e+006 1.214982212051e+006 1.218554789162e+006 1.197626580497e+006 1.195687030481e+006 1.220359605695e+006 1.222252346639e+006 1.187426370829e+006 1.000000000000e+006 1.000000000000e+006 1.000000000000e+006 1.179968335788e+006 1.169450893246e+006 1.173008255663e+006 1.178263262025e+006 1.206346130172e+006 1.216735610370e+006 1.220279226176e+006 1.206102466353e+006 1.220356191115e+006 1.217979793802e+006 1.220118340762e+006 1.166538016000e+006 1.165966872459e+006 1.154265452588e+006 1.218097189955e+006 1.213788959253e+006 1.228819817344e+006 1.222415424748e+006 1.228961220205e+006 1.157881957658e+006 1.166999993735e+006 1.167026953743e+006 1.172649841522e+006 1.160132321012e+006 1.179341202133e+006 1.153611578286e+006 1.140891765835e+006 1.147527510256e+006 1.153601659827e+006 1.221445427997e+006 1.205778711971e+006 1.207501465189e+006 1.211415413579e+006 1.153933143743e+006 1.147348981105e+006 1.140197064882e+006 1.134820011329e+006 1.209571038014e+006 1.214921816485e+006 1.113274012702e+006 1.110818752056e+006 1.122515645224e+006 1.172446376015e+006 1.178678677754e+006 1.098330813689e+006 1.113550031287e+006 1.105472255269e+006 1.202650649489e+006 1.189004936171e+006 1.183510122060e+006 1.084414542359e+006 1.085821810257e+006 1.220235642505e+006 1.220265206139e+006 1.166381670548e+006 1.177907500294e+006 1.162094057694e+006 1.165667868226e+006 1.153707498790e+006 1.152561669600e+006 1.188008111565e+006 1.128952145474e+006 1.134915405323e+006 1.110975801420e+006 1.102203948145e+006 1.096457513291e+006 1.141221293589e+006 1.093109037657e+006 1.103084591650e+006 1.106144097492e+006 1.088440748268e+006 1.203399714786e+006 1.205969177287e+006 1.128343203501e+006 1.138165241457e+006 1.192535321377e+006 1.211567532949e+006 1.197647034627e+006 1.199671538064e+006 1.220181892764e+006 1.220227040784e+006 1.216089960133e+006 1.218885245791e+006 1.183165357418e+006 1.188151232368e+006 1.152219459932e+006 1.144533307401e+006 1.139551516112e+006 1.158549383806e+006 1.146909061734e+006 1.139305564870e+006 1.155676703522e+006 1.184277850812e+006 1.184596385365e+006 1.190353816928e+006 1.160236824408e+006 1.197196657611e+006 1.176184884823e+006 1.196134342967e+006 1.192025285741e+006 1.126935068654e+006 1.114595971302e+006 1.122431419317e+006 1.202634541011e+006 1.208437802854e+006 1.192696562554e+006 1.148729545056e+006 1.199305611987e+006 1.117903732408e+006 1.123829363093e+006 1.220356949571e+006 1.222392447085e+006 1.201112179032e+006 1.195999082768e+006 1.201476360248e+006 1.176096873947e+006 1.198952312084e+006 1.160379309897e+006 1.149313945303e+006 1.219590628190e+006 1.210493282584e+006 1.213266181168e+006 1.205409649929e+006 1.170154842768e+006 1.166257836728e+006 1.169364753471e+006 1.176574233796e+006 1.195938207559e+006 1.220094609579e+006 1.217798794622e+006 1.132709335169e+006 1.139244427698e+006 1.142048178156e+006 1.129430793751e+006 1.184763414294e+006 1.115506843733e+006 1.101185490587e+006 1.105566826075e+006 1.186587449833e+006 1.202655691248e+006 1.218790160167e+006 1.163951929511e+006 1.132555109912e+006 1.127397600147e+006 1.119811639791e+006 1.139567562512e+006 1.139468082921e+006 1.218957427566e+006 1.220062075913e+006 1.215231820018e+006 1.122997942296e+006 1.117088923574e+006 1.174856031651e+006 1.182361192242e+006 1.183046209687e+006 1.126635161665e+006 1.138725406069e+006 1.134724830432e+006 1.219078356363e+006 1.220154367418e+006 1.223947968599e+006 1.206313924639e+006 1.208084271193e+006 1.131575773391e+006 1.146453682302e+006 1.190726531046e+006 1.220217584649e+006 1.221334453521e+006 1.150219632774e+006 1.140564279049e+006 1.144042769053e+006 1.215516772884e+006 1.169839092251e+006 1.200089086673e+006 1.128734764863e+006 1.190077017624e+006 1.217317900236e+006 1.214552099325e+006 1.219346168328e+006 1.159172151784e+006 1.116663938744e+006 1.214809604997e+006 1.211316302702e+006 1.148969050740e+006 1.108238452798e+006 1.119179359180e+006 1.213050921492e+006 1.222212111696e+006 1.223575918601e+006 1.134619247032e+006 1.129065553312e+006 1.121446157071e+006 1.000000000000e+006 1.000000000000e+006 1.000000000000e+006 1.157336110079e+006 1.222624731690e+006 1.217174416468e+006 1.216258303566e+006 1.213450963524e+006 1.200895319090e+006 1.157689761070e+006 1.210034256132e+006 1.199903252208e+006 1.195725037163e+006 1.000000122140e+006 1.000000122147e+006 1.222477480242e+006 1.228877713981e+006 1.220178191078e+006 1.195820575681e+006 1.141922205097e+006 1.188886026741e+006 1.147838299453e+006 1.220483094881e+006 1.172587814811e+006 1.220355642455e+006 1.124022580863e+006 1.126211798980e+006 1.166944630031e+006 1.000000000000e+006 1.000000000000e+006 1.205415703309e+006 1.189760327367e+006 1.192647961418e+006 1.183790940639e+006 1.160658610114e+006 1.221640126971e+006 1.009909674627e+006 1.009623222970e+006 1.009909664824e+006 1.009623226626e+006 1.210234077286e+006 1.220910612304e+006 1.161569241016e+006 1.220097000880e+006 1.008906548260e+006 1.007785540444e+006 1.006307516448e+006 1.007785542726e+006 1.117533405838e+006 1.108493869281e+006 1.220339856212e+006 1.124454439869e+006 1.208562902604e+006 1.212008603686e+006 1.204483593765e+006 1.201670466295e+006 1.220310024939e+006 1.220172800889e+006 1.219054698536e+006 1.220326427337e+006 1.099511472835e+006 1.114166427672e+006 1.000000000000e+006 1.000000000000e+006 1.223343463277e+006 1.219333728506e+006 1.206075182618e+006 1.217116964581e+006 1.151812365614e+006 1.223180106344e+006 1.160857269646e+006 1.000000092671e+006 1.000000092665e+006 1.090618457980e+006 1.182044159880e+006 1.077511326552e+006 1.070019211526e+006 1.064682601132e+006 1.117355469306e+006 1.204539091660e+006 1.207083263730e+006 1.103733696465e+006 1.000000000000e+006 1.000000000000e+006 1.092482275507e+006 1.228844774040e+006 1.228836301170e+006 1.106779043545e+006 1.228876503779e+006 1.223524812996e+006 1.228956355263e+006 1.112072650041e+006 1.014143522862e+006 1.011767463787e+006 1.011377381118e+006 1.016602592903e+006 1.015643528513e+006 1.011767446012e+006 1.016602541936e+006 1.015643447518e+006 1.018763851939e+006 1.021794832363e+006 1.019917920772e+006 1.021794818136e+006 1.019917716276e+006 1.024379233190e+006 1.027981297200e+006 1.025748299605e+006 1.027980613842e+006 1.025748613826e+006 1.031020318061e+006 1.035227004318e+006 1.032620999390e+006 1.035221403780e+006 1.032620604426e+006 1.038729859010e+006 1.043594362088e+006 1.040575975894e+006 1.043561389981e+006 1.040567807316e+006 1.047539234464e+006 1.053231316546e+006 1.049688336032e+006 1.053075010899e+006 1.049620786588e+006 1.012792895451e+006 1.013185605997e+006 1.016841363368e+006 1.018147216273e+006 1.013185564145e+006 1.012792889717e+006 1.016841279085e+006 1.018147086297e+006 1.022074053445e+006 1.023653118351e+006 1.022074296775e+006 1.023653239641e+006 1.028312244247e+006 1.030173074487e+006 1.028312726963e+006 1.030172048158e+006 1.035602116748e+006 1.037771121215e+006 1.035602496535e+006 1.037761464864e+006 1.027009811624e+006 1.031408901848e+006 1.024736660946e+006 1.034029872982e+006 1.023060871469e+006 1.030125081517e+006 1.031410195983e+006 1.027010366481e+006 1.024737235087e+006 1.034030953473e+006 1.023061027045e+006 1.030125130347e+006 1.039162506893e+006 1.042233936703e+006 1.037720237978e+006 1.039165699055e+006 1.042236356540e+006 1.037719547652e+006 1.047993343759e+006 1.051745506494e+006 1.046504199395e+006 1.048001135807e+006 1.051754281587e+006 1.046498679948e+006 1.057886474379e+006 1.063311839722e+006 1.055732843741e+006 1.057897847104e+006 1.063216794958e+006 1.056309651833e+006 1.068778646598e+006 1.075453822431e+006 1.068784056544e+006 1.074748548079e+006 1.043988538772e+006 1.046540631970e+006 1.043985068980e+006 1.046481258861e+006 1.015183185140e+006 1.010012122787e+006 1.012366520650e+006 1.015183210056e+006 1.010012172076e+006 1.012366628923e+006 1.019944323065e+006 1.017362760610e+006 1.019944283183e+006 1.017362907081e+006 1.025797468248e+006 1.025797286419e+006 1.032684846231e+006 1.032684378539e+006 1.040710821037e+006 1.040709780046e+006 1.132446523484e+006 1.145555480371e+006 1.132632269949e+006 1.222605665364e+006 1.050098043029e+006 1.050095168293e+006 1.080572994804e+006 1.080574294409e+006 1.057509031794e+006 1.064496264153e+006 1.060353427656e+006 1.064001798589e+006 1.059862214244e+006 1.053566313006e+006 1.056780387779e+006 1.053532316111e+006 1.056477320532e+006 1.059400023321e+006 1.119385546237e+006 1.060368908170e+006 1.132627159290e+006 1.145553678545e+006 1.087730621693e+006 1.093108800608e+006 1.064423203704e+006 1.072944204916e+006 1.068310947314e+006 1.068043230699e+006 1.068913338862e+006 1.074704321963e+006 1.074547711238e+006 1.076421660304e+006 1.073433273248e+006 1.082390317550e+006 1.079193077546e+006 1.082093809093e+006 1.075002075436e+006 1.082307906083e+006 1.089963849903e+006 1.176666946862e+006 1.126272726103e+006 1.089102068024e+006 1.185602030319e+006 1.222349043803e+006 1.087218274006e+006 1.000000000000e+006 1.000000000000e+006 1.000000000000e+006 1.172757540838e+006 1.179085079593e+006 1.186045359776e+006 1.181083743182e+006 1.173956394771e+006 1.210087755442e+006 1.228857661284e+006 1.185201905135e+006 1.228823339878e+006 1.167934760750e+006 1.106115822958e+006 1.102208012172e+006 1.209853729947e+006 1.195889643930e+006 1.098083046631e+006 1.091439042070e+006 1.176711627327e+006 1.095921114497e+006 1.098528076266e+006 1.135850756141e+006 1.117035208873e+006 1.065797665269e+006 1.173127383442e+006 1.000000042855e+006 1.000000042858e+006 1.202868781674e+006 1.005706678251e+006 1.005706670116e+006 1.081618455372e+006 1.195954023175e+006 1.177525269945e+006 1.080382827833e+006 1.188300878845e+006 1.191030279263e+006 1.220362125391e+006 1.071635956778e+006 1.074008722814e+006 1.072526119163e+006 1.161544410473e+006 1.000000000000e+006 1.000000000000e+006 1.147462624763e+006 1.113831030087e+006 1.000000000000e+006 1.229034640243e+006 1.221990089333e+006 1.228881635960e+006 1.086087332631e+006 1.170893382989e+006 1.000000000000e+006 1.204041342093e+006 1.204247755036e+006 1.189293678965e+006 1.099991973876e+006 1.200317625627e+006 1.010529695976e+006 1.010529814297e+006 1.204081390126e+006 1.223652420653e+006 1.125244933231e+006 1.207873323061e+006 1.200036676399e+006 1.225347585965e+006 1.209825412580e+006 1.214696496737e+006 1.183621292651e+006 1.152515603149e+006 1.157908886952e+006 1.195424956964e+006 1.228854393845e+006 1.198536292518e+006 1.228813700319e+006 1.119387054277e+006 1.113233723707e+006 1.210117571468e+006 1.100617313162e+006 1.000000000000e+006 1.090771373850e+006 1.000000000000e+006 1.081806258274e+006 1.190623686797e+006 1.096413463527e+006 1.213855714240e+006 1.092406511752e+006 1.177553949360e+006 1.064000765835e+006 1.198786910484e+006 1.179959096165e+006 1.229016316191e+006 1.228905907028e+006 1.228784731842e+006 1.228825376931e+006 1.000000000000e+006 1.000000000000e+006 1.000000000000e+006 1.000000000000e+006 1.224062722725e+006 1.000000000000e+006 1.000000000000e+006 1.220564539820e+006 1.224450457981e+006 1.228511195822e+006 1.175614459734e+006 1.000000000000e+006 1.186618007341e+006 1.194942600817e+006 1.006743450397e+006 1.006743507355e+006 1.014334519396e+006 1.014334695976e+006 1.228858749869e+006 1.225326455851e+006 1.020523265173e+006 1.020522964563e+006 1.019044933557e+006 1.019045223112e+006 1.224550869172e+006 1.228498600406e+006 
        </DataArray>
        <DataArray type="Float64" Name="MOLAR_FRACTION" format="ascii">