<?xml version="1.0"?>
<VTKFile type="UnstructuredGrid" version="0.1" byte_order="LittleEndian">
  <UnstructuredGrid>
    <Piece NumberOfPoints="963" NumberOfCells="1758">
      <Points>
        <DataArray type="Float64" NumberOfComponents="3" format="ascii">
          1.600262034769e+002 1.257989505921e+001 0.000000000000e+000
          1.635346199106e+002 2.000000000000e+001 0.000000000000e+000
          1.554515002484e+002 2.000000000000e+001 0.000000000000e+000
          3.459306441575e+000 1.667621982453e+001 0.000000000000e+000
          3.062266634850e+000 1.705413688405e+001 0.000000000000e+000
          2.873380769063e+000 1.650527725632e+001 0.000000000000e+000
          1.514088444034e+000 1.865189448105e+001 0.000000000000e+000
          1.967902677551e+000 1.834103489750e+001 0.000000000000e+000
          2.034564522234e+000 1.890806711991e+001 0.000000000000e+000
          2.478275273162e+000 1.702762299110e+001 0.000000000000e+000
          2.952621433467e+000 1.774357373580e+001 0.000000000000e+000
          2.237893542067e+000 1.782457469610e+001 0.000000000000e+000
          3.313583922780e+000 3.274674552047e+000 0.000000000000e+000
          2.561432712787e+000 3.156040447793e+000 0.000000000000e+000
          3.047531989640e+000 2.714594415171e+000 0.000000000000e+000
          2.750804692284e+000 3.936058190693e+000 0.000000000000e+000
          2.599039179818e+000 2.451529939148e+000 0.000000000000e+000
          3.139686649742e+000 2.186924052088e+000 0.000000000000e+000
          1.919984553221e+000 3.358010194268e+000 0.000000000000e+000
          1.960900304591e+000 2.773319745251e+000 0.000000000000e+000
          1.894565400391e+000 1.733316857565e+001 0.000000000000e+000
          0.000000000000e+000 1.538461538461e+001 0.000000000000e+000
          5.816229249735e-001 1.567919247147e+001 0.000000000000e+000
          0.000000000000e+000 1.589743589743e+001 0.000000000000e+000
          9.766405669483e+001 2.000000000000e+001 0.000000000000e+000
          1.010672711393e+002 1.500000000000e+001 0.000000000000e+000
          1.029329279907e+002 2.000000000000e+001 0.000000000000e+000
          9.588503785413e+001 1.500000000000e+001 0.000000000000e+000
          1.039231647117e+002 1.000000000000e+001 0.000000000000e+000
          9.860830811271e+001 1.000000000000e+001 0.000000000000e+000
          1.010672711397e+002 5.000000000000e+000 0.000000000000e+000
          9.766405669557e+001 0.000000000000e+000 0.000000000000e+000
          1.029329279915e+002 0.000000000000e+000 0.000000000000e+000
          9.588503785449e+001 5.000000000000e+000 0.000000000000e+000
          7.892434178002e+001 2.000000000000e+001 0.000000000000e+000
          8.173808356948e+001 1.500000000000e+001 0.000000000000e+000
          8.328058896910e+001 2.000000000000e+001 0.000000000000e+000
          7.679274808893e+001 1.514423393202e+001 0.000000000000e+000
          7.970503892166e+001 1.000000000000e+001 0.000000000000e+000
          8.409930620613e+001 1.000000000000e+001 0.000000000000e+000
          8.173808356980e+001 5.000000000000e+000 0.000000000000e+000
          7.892434178065e+001 0.000000000000e+000 0.000000000000e+000
          8.328058896976e+001 0.000000000000e+000 0.000000000000e+000
          7.679274808925e+001 4.855766067979e+000 0.000000000000e+000
          1.084583939765e+002 2.000000000000e+001 0.000000000000e+000
          1.122011528880e+002 1.500000000000e+001 0.000000000000e+000
          1.142529496098e+002 2.000000000000e+001 0.000000000000e+000
          1.065018792644e+002 1.500000000000e+001 0.000000000000e+000
          1.153419838410e+002 1.000000000000e+001 0.000000000000e+000
          1.094968549120e+002 1.000000000000e+001 0.000000000000e+000
          1.122011528884e+002 5.000000000000e+000 0.000000000000e+000
          1.084583939773e+002 0.000000000000e+000 0.000000000000e+000
          1.142529496106e+002 0.000000000000e+000 0.000000000000e+000
          1.065018792648e+002 5.000000000000e+000 0.000000000000e+000
          1.181779812237e+002 1.500000000000e+001 0.000000000000e+000
          1.203297004775e+002 2.000000000000e+001 0.000000000000e+000
          1.214717707847e+002 1.000000000000e+001 0.000000000000e+000
          1.181779812242e+002 5.000000000000e+000 0.000000000000e+000
          1.203297004784e+002 0.000000000000e+000 0.000000000000e+000
          7.477039199538e+001 2.000000000000e+001 0.000000000000e+000
          7.551483469771e+001 1.000000000000e+001 0.000000000000e+000
          7.296959467356e+001 1.385646386579e+001 0.000000000000e+000
          7.477039199599e+001 0.000000000000e+000 0.000000000000e+000
          7.296959467379e+001 6.143536134207e+000 0.000000000000e+000
          6.918477198508e+001 1.366665532880e+001 0.000000000000e+000
          6.746477463053e+001 1.000000000000e+001 0.000000000000e+000
          7.151921701478e+001 1.000000000000e+001 0.000000000000e+000
          6.918477198529e+001 6.333344671202e+000 0.000000000000e+000
          9.263986346551e+001 2.000000000000e+001 0.000000000000e+000
          9.094345943471e+001 1.500000000000e+001 0.000000000000e+000
          9.354026529380e+001 1.000000000000e+001 0.000000000000e+000
          9.263986346623e+001 0.000000000000e+000 0.000000000000e+000
          9.094345943506e+001 5.000000000000e+000 0.000000000000e+000
          1.244344522558e+002 1.503312574389e+001 0.000000000000e+000
          1.267023895482e+002 2.000000000000e+001 0.000000000000e+000
          1.285510028831e+002 1.020485663255e+001 0.000000000000e+000
          1.244344522563e+002 5.033125743893e+000 0.000000000000e+000
          1.267023895491e+002 0.000000000000e+000 0.000000000000e+000
          8.623136018348e+001 1.500000000000e+001 0.000000000000e+000
          8.784898578901e+001 2.000000000000e+001 0.000000000000e+000
          8.870757443665e+001 1.000000000000e+001 0.000000000000e+000
          8.623136018382e+001 5.000000000000e+000 0.000000000000e+000
          8.784898578969e+001 0.000000000000e+000 0.000000000000e+000
          4.872472752737e+000 0.000000000000e+000 0.000000000000e+000
          4.204479229380e+000 6.412840757122e-001 0.000000000000e+000
          4.157376851380e+000 0.000000000000e+000 0.000000000000e+000
          5.192892237051e+000 7.280355562789e-001 0.000000000000e+000
          1.306630304579e+000 6.212843344151e-001 0.000000000000e+000
          1.050228457081e+000 0.000000000000e+000 0.000000000000e+000
          1.614006202528e+000 0.000000000000e+000 0.000000000000e+000
          1.266763055794e+001 1.554696422866e+001 0.000000000000e+000
          1.263589100638e+001 1.657720348306e+001 0.000000000000e+000
          1.174268578662e+001 1.633018318031e+001 0.000000000000e+000
          6.588835695415e+000 7.505681085529e+000 0.000000000000e+000
          6.456871838389e+000 6.658671683861e+000 0.000000000000e+000
          7.208099140752e+000 7.038822846307e+000 0.000000000000e+000
          4.412623338166e+000 9.138856431549e+000 0.000000000000e+000
          4.024185797397e+000 8.708923235630e+000 0.000000000000e+000
          4.601447447338e+000 8.507292699647e+000 0.000000000000e+000
          5.325995059827e-001 6.308307298123e+000 0.000000000000e+000
          0.000000000000e+000 6.666666666655e+000 0.000000000000e+000
          0.000000000000e+000 6.153846153835e+000 0.000000000000e+000
          3.986461521768e+000 8.146114708182e+000 0.000000000000e+000
          2.411603373059e+000 6.510912162016e+000 0.000000000000e+000
          1.807525763324e+000 6.938080373464e+000 0.000000000000e+000
          1.686779352680e+000 6.178928843543e+000 0.000000000000e+000
          2.510760620997e+000 7.229076682239e+000 0.000000000000e+000
          3.166991983438e+000 6.906135870389e+000 0.000000000000e+000
          3.452788915829e+000 6.276851216781e+000 0.000000000000e+000
          3.340122000742e+000 5.656365440432e+000 0.000000000000e+000
          4.047936562877e+000 5.873561587395e+000 0.000000000000e+000
          1.802463974828e+000 1.292744708026e+001 0.000000000000e+000
          1.383967161336e+000 1.330299552906e+001 0.000000000000e+000
          1.329690820161e+000 1.266495373033e+001 0.000000000000e+000
          2.267922292389e+000 1.431116835808e+001 0.000000000000e+000
          2.854613987538e+000 1.466581611369e+001 0.000000000000e+000
          2.339869278674e+000 1.493776402241e+001 0.000000000000e+000
          4.690956878046e+000 3.115726773737e+000 0.000000000000e+000
          4.014773718330e+000 2.850429494150e+000 0.000000000000e+000
          4.643493383296e+000 2.293565471327e+000 0.000000000000e+000
          5.186083944243e+000 1.661927139510e+000 0.000000000000e+000
          5.452965511439e+000 2.679881546544e+000 0.000000000000e+000
          5.360460104304e+000 3.539902157655e+000 0.000000000000e+000
          6.197986304192e+000 3.115706366113e+000 0.000000000000e+000
          7.929356606585e-001 1.634705420870e+001 0.000000000000e+000
          1.222819867503e+000 1.599517159419e+001 0.000000000000e+000
          1.215723647926e+000 1.546209040954e+001 0.000000000000e+000
          1.770601276021e+000 1.521217632514e+001 0.000000000000e+000
          1.242830150061e+000 1.493919370237e+001 0.000000000000e+000
          1.166444124506e+000 4.610115997312e+000 0.000000000000e+000
          1.851620547934e+000 4.486892013458e+000 0.000000000000e+000
          1.494152702314e+000 5.145235789232e+000 0.000000000000e+000
          1.353088107040e+000 4.090803091641e+000 0.000000000000e+000
          3.802567455935e+000 5.084697985980e+000 0.000000000000e+000
          1.014840185783e+000 5.494768572296e+000 0.000000000000e+000
          8.831064584820e-001 5.109311190608e+000 0.000000000000e+000
          1.727903958959e+000 1.618384478933e+001 0.000000000000e+000
          1.343261525342e+000 1.651800241408e+001 0.000000000000e+000
          3.308120627291e+000 8.593311644828e+000 0.000000000000e+000
[...]
      <PointData Scalars="LIQUID_PRESSURE">
        <DataArray type="Float64" Name="LIQUID_PRESSURE" format="ascii">
          1.000000000000e+006 1.000000000000e+006 1.000000000000e+006 1.108623773507e+006 1.113353227241e+006 1.115467250205e+006 1.124869339021e+006 1.122688459673e+006 1.122290925240e+006 1.119192123218e+006 1.114647040391e+006 1.121014288342e+006 1.110500782747e+006 1.118505816045e+006 1.113540064255e+006 1.116703664244e+006 1.118109074954e+006 1.112538697641e+006 1.122961775166e+006 1.122763032997e+006 1.123097559944e+006 1.141923916356e+006 1.133213207379e+006 1.141835733318e+006 1.000000000000e+006 1.000000000000e+006 1.000000000000e+006 1.000000000000e+006 1.000000000000e+006 1.000000000000e+006 1.000000000000e+006 1.000000000000e+006 1.000000000000e+006 1.000000000000e+006 1.000000000000e+006 1.000000000000e+006 1.000000000000e+006 1.000000000000e+006 1.000000000000e+006 1.000000000000e+006 1.000000000000e+006 1.000000000000e+006 1.000000000000e+006 1.000000000000e+006 1.000000000000e+006 1.000000000000e+006 1.000000000000e+006 1.000000000000e+006 1.000000000000e+006 1.000000000000e+006 1.000000000000e+006 1.000000000000e+006 1.000000000000e+006 1.000000000000e+006 1.000000000000e+006 1.000000000000e+006 1.000000000000e+006 1.000000000000e+006 1.000000000000e+006 1.000000000000e+006 1.000000000000e+006 1.000000000000e+006 1.000000000000e+006 1.000000000000e+006 1.000000000000e+006 1.000000000000e+006 1.000000000000e+006 1.000000000000e+006 1.000000000000e+006 1.000000000000e+006 1.000000000000e+006 1.000000000000e+006 1.000000000000e+006 1.000000000000e+006 1.000000000000e+006 1.000000000000e+006 1.000000000000e+006 1.000000000000e+006 1.000000000000e+006 1.000000000000e+006 1.000000000000e+006 1.000000000000e+006 1.000000000000e+006 1.088895900920e+006 1.098583878890e+006 1.099176116879e+006 1.084231721208e+006 1.125864533843e+006 1.127606215696e+006 1.124415572539e+006 1.015096036888e+006 1.015266727443e+006 1.019376787485e+006 1.064860047024e+006 1.066549016587e+006 1.057089444039e+006 1.095563585740e+006 1.101073650613e+006 1.092843262574e+006 1.134104474407e+006 1.141933646338e+006 1.141873689253e+006 1.101643526519e+006 1.119789222899e+006 1.123476984218e+006 1.124071098752e+006 1.118948998187e+006 1.112284092598e+006 1.108693291854e+006 1.110148290031e+006 1.100766512929e+006 1.123527992921e+006 1.125527067757e+006 1.125816534584e+006 1.120799946609e+006 1.115634819105e+006 1.120272505201e+006 1.091537302649e+006 1.101213877688e+006 1.092225594575e+006 1.084330015041e+006 1.080474844613e+006 1.081796608664e+006 1.070023707488e+006 1.130240763900e+006 1.126343329949e+006 1.126437232605e+006 1.123710252842e+006 1.126344845503e+006 1.126795784976e+006 1.123305985679e+006 1.124970257115e+006 1.125695185466e+006 1.104110594944e+006 1.128024737077e+006 1.129132567313e+006 1.123872817204e+006 1.125739599074e+006 1.110527738413e+006 1.117419480480e+006 1.112630739810e+006 1.129828339618e+006 1.130219771994e+006 1.125988980357e+006 1.130452791241e+006 1.128631319786e+006 1.125383085496e+006 1.114935369582e+006 1.129964424589e+006 1.115128977587e+006 1.118380940207e+006 1.137065192547e+006 1.141682189056e+006 1.126117238451e+006 1.124050327926e+006 1.121612137748e+006 1.100637145579e+006 1.088876414772e+006 1.084588954891e+006 1.078040454843e+006 1.072779165205e+006 1.125144828443e+006 1.125350427774e+006 1.128861205676e+006 1.129076210266e+006 1.123932108127e+006 1.141755175225e+006 1.136850304050e+006 1.141608545163e+006 1.120519883440e+006 1.104266874051e+006 1.098611201752e+006 1.125143720522e+006 1.127329265211e+006 1.117538712781e+006 1.112346512726e+006 1.116501020983e+006 1.136412746413e+006 1.141780864900e+006 1.127462425967e+006 1.123209751627e+006 1.123448708852e+006 1.114044114965e+006 1.119263777299e+006 1.129802340756e+006 1.131213497828e+006 1.112253877980e+006 1.107699049514e+006 1.123766077018e+006 1.120809422256e+006 1.071103353247e+006 1.061024228751e+006 1.121152601042e+006 1.120663434063e+006 1.128492034130e+006 1.120745129416e+006 1.124945983290e+006 1.118688834061e+006 1.107240056762e+006 1.107459482347e+006 1.099049314964e+006 1.122645604021e+006 1.124024746291e+006 1.126344219746e+006 1.128329448881e+006 1.126179676526e+006 1.124525057172e+006 1.111459388040e+006 1.112636924008e+006 1.125346215096e+006 1.127537436610e+006 1.124604224984e+006 1.121889654452e+006 1.000000000001e+006 1.000000000001e+006 1.117454110305e+006 1.120930789953e+006 1.128395096768e+006 1.045656306665e+006 1.051899513836e+006 1.041105450936e+006 1.105094429478e+006 1.095744236786e+006 1.127759019959e+006 1.124939716842e+006 1.128873370382e+006 1.123377381320e+006 1.118991774888e+006 1.128892227924e+006 1.122774414988e+006 1.126753364516e+006 1.126159966935e+006 1.117156839495e+006 1.107755879424e+006 1.132612912240e+006 1.105986767813e+006 1.123376663240e+006 1.123608330801e+006 1.110007337825e+006 1.121125755995e+006 1.124516385928e+006 1.133518140289e+006 1.133839759385e+006 1.142057518625e+006 1.141880022704e+006 1.141998186606e+006 1.141836134837e+006 1.135463778508e+006 1.141168807354e+006 1.135582417596e+006 1.127926561189e+006 1.132299488025e+006 1.141161504241e+006 1.137913104226e+006 1.141477020884e+006 1.141657530498e+006 1.135020125721e+006 1.141657240876e+006 1.134427957419e+006 1.141733923241e+006 1.136432606945e+006 1.141693510409e+006 1.141603360301e+006 1.000000000027e+006 1.000000000005e+006 1.000000000004e+006 1.000000000051e+006 1.000000000004e+006 1.000000000025e+006 1.000000000005e+006 1.000000000027e+006 1.000000000004e+006 1.000000000051e+006 1.000000000004e+006 1.000000000025e+006 1.000000000685e+006 1.000000000267e+006 1.000000000142e+006 1.000000001229e+006 1.000000000132e+006 1.000000000637e+006 1.000000000267e+006 1.000000000685e+006 1.000000000142e+006 1.000000001228e+006 1.000000000132e+006 1.000000000637e+006 1.000003272368e+006 1.000001802208e+006 1.000001224710e+006 1.000004684743e+006 1.000001159163e+006 1.000003114240e+006 1.000001801345e+006 1.000003270573e+006 1.000001224052e+006 1.000004682498e+006 1.000001158780e+006 1.000003113251e+006 1.000000428512e+006 1.000000217199e+006 1.000000139521e+006 1.000000648111e+006 1.000000131048e+006 1.000000403855e+006 1.000000217096e+006 1.000000428286e+006 1.000000139449e+006 1.000000647802e+006 1.000000131003e+006 1.000000403718e+006 1.000043466595e+006 1.000028964923e+006 1.000019536133e+006 1.000060294128e+006 1.000028949466e+006 1.000043440711e+006 1.000019525036e+006 1.000060261799e+006 1.000000042067e+006 1.000000019398e+006 1.000000011681e+006 1.000000067549e+006 1.000000010912e+006 1.000000039400e+006 1.000000019389e+006 1.000000042045e+006 1.000000011675e+006 1.000000067517e+006 1.000000010909e+006 1.000000039386e+006 1.000000002968e+006 1.000000005113e+006 1.000000002766e+006 1.000000002967e+006 1.000000005111e+006 1.000000002765e+006 1.000008214862e+006 1.000013437529e+006 1.000007871620e+006 1.000008210260e+006 1.000013431128e+006 1.000007869271e+006 1.000019033025e+006 1.000019027749e+006 1.000000001608e+006 1.000000004121e+006 1.000000000975e+006 1.000000006568e+006 1.000000001608e+006 1.000000006567e+006 1.000000778487e+006 1.000001515458e+006 1.000000542624e+006 1.000002134122e+006 1.000000778358e+006 1.000002133793e+006 1.000000000356e+006 1.000000000208e+006 1.000000000356e+006 1.000033845964e+006 1.000043111311e+006 1.000043121922e+006 1.000033849873e+006 1.000000015835e+006 1.000000024477e+006 1.000000024472e+006 1.000000265001e+006 1.000000180689e+006 1.000000264955e+006 1.000000083785e+006 1.000000055724e+006 1.000000083770e+006 1.000013406463e+006 1.000013408195e+006 1.000003948359e+006 1.000005483464e+006 1.000005482705e+006 1.000000000070e+006 1.000000000039e+006 1.000000000070e+006 1.000010804161e+006 1.000000000010e+006 1.000000000002e+006 1.000000000010e+006 1.000000000000e+006 1.000000000001e+006 1.000000000000e+006 1.000000000001e+006 1.054135029655e+006 1.047094586789e+006 1.056790321870e+006 1.043831265144e+006 1.115986152716e+006 1.117681045659e+006 1.121206633665e+006 1.115946814460e+006 1.121163156201e+006 1.089219255982e+006 1.086464123002e+006 1.124404810911e+006 1.134313156566e+006 1.075781450530e+006 1.000000000000e+006 1.000000000000e+006 1.000000000000e+006 1.067196391066e+006 1.056771680006e+006 1.060102747894e+006 1.065389355245e+006 1.102484675014e+006 1.118554369148e+006 1.127378371846e+006 1.102082726570e+006 1.124564973694e+006 1.120251768595e+006 1.123804756794e+006 1.054191967716e+006 1.053708992720e+006 1.044279013695e+006 1.120455173806e+006 1.114200554913e+006 1.142022386908e+006 1.134480905144e+006 1.141796606919e+006 1.047118947954e+006 1.054547042294e+006 1.054553299775e+006 1.059757936676e+006 1.048815034537e+006 1.066494300763e+006 1.043851481120e+006 1.035364483111e+006 1.039610288653e+006 1.043824939321e+006 1.132753258597e+006 1.101562391545e+006 1.104326538069e+006 1.110504786893e+006 1.044093943046e+006 1.039490835554e+006 1.034933338967e+006 1.031775831097e+006 1.107626760621e+006 1.115887867361e+006 1.021015697953e+006 1.020043325245e+006 1.025297674269e+006 1.059569142906e+006 1.065806178018e+006 1.015166476935e+006 1.021161839696e+006 1.017855259330e+006 1.096715130788e+006 1.077670128119e+006 1.071107048730e+006 1.010725926932e+006 1.011135409061e+006 1.124160628721e+006 1.126351749039e+006 1.054035518505e+006 1.065011850345e+006 1.050446872166e+006 1.053413523815e+006 1.043894652510e+006 1.043104803200e+006 1.076423980649e+006 1.028557064295e+006 1.031821741494e+006 1.020085391162e+006 1.016615142756e+006 1.014527493580e+006 1.035557765503e+006 1.013421433260e+006 1.016952198335e+006 1.018131757435e+006 1.011914290111e+006 1.097874407390e+006 1.101894069185e+006 1.028206541522e+006 1.033648842507e+006 1.082194628770e+006 1.110766916728e+006 1.089282353539e+006 1.092217330430e+006 1.127383601320e+006 1.128488279838e+006 1.117585132560e+006 1.121630336143e+006 1.070716266595e+006 1.076600940185e+006 1.042893470000e+006 1.037641692136e+006 1.034543021961e+006 1.047546367399e+006 1.039226328695e+006 1.034339977583e+006 1.045327885074e+006 1.072048439622e+006 1.072422563092e+006 1.079411933058e+006 1.048904331012e+006 1.088591159132e+006 1.063269693020e+006 1.087096731920e+006 1.081522138542e+006 1.027497416050e+006 1.021625602762e+006 1.025234465013e+006 1.096675112381e+006 1.105808494421e+006 1.082425230591e+006 1.040447157941e+006 1.091657204371e+006 1.023112463271e+006 1.025924644617e+006 1.128433820813e+006 1.134370223182e+006 1.094405933978e+006 1.086977773783e+006 1.094961098361e+006 1.063155208888e+006 1.091134348818e+006 1.049042139035e+006 1.040831559687e+006 1.122746834885e+006 1.109069846470e+006 1.113388614492e+006 1.100992720832e+006 1.057427843889e+006 1.053959674952e+006 1.056656294060e+006 1.063652084664e+006 1.086829626782e+006 1.123931057725e+006 1.120067221207e+006 1.030600380133e+006 1.034332272449e+006 1.036074497774e+006 1.028795767096e+006 1.072554997733e+006 1.022025664339e+006 1.016226661457e+006 1.017878535276e+006 1.074661035408e+006 1.096695332712e+006 1.121471618704e+006 1.051874428514e+006 1.030501973493e+006 1.027741731322e+006 1.024003752895e+006 1.034511966780e+006 1.034517574127e+006 1.121789627879e+006 1.123643657043e+006 1.116351069870e+006 1.025537063951e+006 1.022770673757e+006 1.061964005267e+006 1.069856640381e+006 1.070612211414e+006 1.027355318507e+006 1.034062255775e+006 1.031691356490e+006 1.121900082569e+006 1.127138287461e+006 1.136704615653e+006 1.102406543834e+006 1.105232462956e+006 1.029961382920e+006 1.038896902061e+006 1.079798386873e+006 1.127078173120e+006 1.132518955224e+006 1.041442833070e+006 1.035116411105e+006 1.037362630816e+006 1.116760373949e+006 1.057123836890e+006 1.092807172420e+006 1.028438774629e+006 1.079001165228e+006 1.119362772113e+006 1.115317095304e+006 1.122320894542e+006 1.048075250948e+006 1.022556154563e+006 1.115706258369e+006 1.110351418227e+006 1.040625925611e+006 1.018964036664e+006 1.023702501463e+006 1.113053587575e+006 1.134107996043e+006 1.136095823801e+006 1.031646565479e+006 1.028615703922e+006 1.024777143786e+006 1.000000000000e+006 1.000000000000e+006 1.000000000000e+006 1.046661260005e+006 1.134519900840e+006 1.119146387856e+006 1.117839839495e+006 1.113666384781e+006 1.094013879921e+006 1.046933675113e+006 1.108327479206e+006 1.092573630229e+006 1.086523128461e+006 1.000000000000e+006 1.000000000000e+006 1.134467551673e+006 1.141817706679e+006 1.124174848794e+006 1.086642718156e+006 1.035979061046e+006 1.077541623974e+006 1.039789749174e+006 1.129947380943e+006 1.059658731604e+006 1.125001510022e+006 1.026029575395e+006 1.027106903432e+006 1.054520505446e+006 1.000000000000e+006 1.000000000000e+006 1.101008457667e+006 1.078616724399e+006 1.082335305227e+006 1.071413169295e+006 1.049236457310e+006 1.133173403067e+006 1.000080165947e+006 1.000075008265e+006 1.000080153672e+006 1.000075004254e+006 1.108646904595e+006 1.131596357376e+006 1.050035454572e+006 1.127475000821e+006 1.000063421595e+006 1.000046340567e+006 1.000029201782e+006 1.000046341885e+006 1.022983637257e+006 1.019072044781e+006 1.125271716057e+006 1.026234557376e+006 1.105993690518e+006 1.111453458297e+006 1.099518261035e+006 1.095198843247e+006 1.127758657529e+006 1.128086678845e+006 1.121882621436e+006 1.126633405850e+006 1.015618182110e+006 1.021421767287e+006 1.000000000000e+006 1.000000000000e+006 1.135790003488e+006 1.122342227608e+006 1.102077721641e+006 1.119055095645e+006 1.042585001349e+006 1.135661530513e+006 1.049377263207e+006 1.000000000000e+006 1.000000000000e+006 1.012585623548e+006 1.069491169328e+006 1.008802252907e+006 1.006991575828e+006 1.005829086874e+006 1.022833314685e+006 1.099596446917e+006 1.103658061586e+006 1.017189849082e+006 1.000000000000e+006 1.000000000000e+006 1.013219476690e+006 1.142029087728e+006 1.141546616086e+006 1.018356726288e+006 1.141295855785e+006 1.136174400686e+006 1.141758267831e+006 1.020552935572e+006 1.000178199095e+006 1.000115967881e+006 1.000110003942e+006 1.000254670136e+006 1.000224027259e+006 1.000115966681e+006 1.000254657860e+006 1.000224017249e+006 1.000337022722e+006 1.000475073024e+006 1.000387115723e+006 1.000475033302e+006 1.000387074356e+006 1.000614344148e+006 1.000843888218e+006 1.000697186475e+006 1.000843953211e+006 1.000697309582e+006 1.001070464699e+006 1.001436032635e+006 1.001202972642e+006 1.001435790713e+006 1.001203207748e+006 1.001787932732e+006 1.002349791845e+006 1.001991404595e+006 1.002346295612e+006 1.001991122920e+006 1.002870923349e+006 1.003725344192e+006 1.003177758420e+006 1.003700859390e+006 1.003169431078e+006 1.000143305198e+006 1.000151079149e+006 1.000264144325e+006 1.000312411440e+006 1.000151084253e+006 1.000143331861e+006 1.000264175910e+006 1.000312405027e+006 1.000490435907e+006 1.000573910462e+006 1.000490411911e+006 1.000573959050e+006 1.000869126254e+006 1.001005274361e+006 1.000869146766e+006 1.001005332557e+006 1.001474431564e+006 1.001688420910e+006 1.001474489543e+006 1.001687727184e+006 1.000779942261e+006 1.001104767852e+006 1.000639190546e+006 1.001328063431e+006 1.000541621879e+006 1.001002210928e+006 1.001105840433e+006 1.000780525671e+006 1.000639709058e+006 1.001329190998e+006 1.000541895761e+006 1.001002652949e+006 1.001837550526e+006 1.002185984661e+006 1.001685335900e+006 1.001839852650e+006 1.002188315426e+006 1.001685841592e+006 1.002936385497e+006 1.003488447880e+006 1.002733655242e+006 1.002941366727e+006 1.003494770866e+006 1.002733040004e+006 1.004519905328e+006 1.005540617434e+006 1.004148843888e+006 1.004527657349e+006 1.005531594084e+006 1.004249806473e+006 1.006710789923e+006 1.008292627983e+006 1.006716309583e+006 1.008118495056e+006 1.002403035950e+006 1.002734039538e+006 1.002402421602e+006 1.002726493632e+006 1.000208184946e+006 1.000080585068e+006 1.000131028436e+006 1.000208251398e+006 1.000080612656e+006 1.000131099677e+006 1.000388836708e+006 1.000281862750e+006 1.000388941774e+006 1.000282017298e+006 1.000702047804e+006 1.000702192124e+006 1.001210272074e+006 1.001210400720e+006 1.002009771540e+006 1.002009631421e+006 1.030369911718e+006 1.038309228651e+006 1.030562392614e+006 1.134665355497e+006 1.003244483651e+006 1.003242960027e+006 1.009637754289e+006 1.009643083770e+006 1.004452611403e+006 1.005796959057e+006 1.004966421369e+006 1.005692615860e+006 1.004878718545e+006 1.003784002400e+006 1.004322729193e+006 1.003776281563e+006 1.004270493326e+006 1.004800741090e+006 1.023785873920e+006 1.004978689630e+006 1.030539942187e+006 1.038297980947e+006 1.011700108469e+006 1.013427449515e+006 1.005785987666e+006 1.007663985235e+006 1.006606271167e+006 1.006554409881e+006 1.006741857554e+006 1.008128398637e+006 1.008047926426e+006 1.008542161777e+006 1.007791756441e+006 1.010139732342e+006 1.009284549604e+006 1.010049032216e+006 1.008201727611e+006 1.010109891220e+006 1.012392150077e+006 1.063693172335e+006 1.027150677725e+006 1.012124546479e+006 1.073511598695e+006 1.134340452349e+006 1.011557883983e+006 1.000000000000e+006 1.000000000000e+006 1.000000000000e+006 1.059855605635e+006 1.066214411337e+006 1.074067518482e+006 1.068396779668e+006 1.060992496021e+006 1.108426812821e+006 1.141897472097e+006 1.073058224813e+006 1.141542895014e+006 1.055401282556e+006 1.018110190733e+006 1.016610089316e+006 1.108045270376e+006 1.086802859535e+006 1.015112508289e+006 1.012863148350e+006 1.063794431486e+006 1.014393915885e+006 1.015274164155e+006 1.032388547477e+006 1.022738958803e+006 1.006080078931e+006 1.060228021112e+006 1.000000000000e+006 1.000000000000e+006 1.097028348282e+006 1.000023632286e+006 1.000023631118e+006 1.009960694844e+006 1.086833278215e+006 1.064624255917e+006 1.009601576647e+006 1.076782456447e+006 1.080224323321e+006 1.124846904081e+006 1.007385476997e+006 1.007957450127e+006 1.007583788850e+006 1.049920223416e+006 1.000000000000e+006 1.000000000000e+006 1.039542586939e+006 1.021269974296e+006 1.000000000000e+006 1.141794219197e+006 1.133850176469e+006 1.141777878132e+006 1.011207002104e+006 1.058101979320e+006 1.000000000000e+006 1.098798519560e+006 1.099171671188e+006 1.078058022778e+006 1.015802457515e+006 1.093151950994e+006 1.000091561678e+006 1.000091619372e+006 1.098881334387e+006 1.136240566050e+006 1.026640004251e+006 1.104899144461e+006 1.092777906528e+006 1.138128311403e+006 1.107986463481e+006 1.115513924157e+006 1.071235438107e+006 1.043117811663e+006 1.047087282337e+006 1.086073148744e+006 1.141839954976e+006 1.090521366584e+006 1.141996527485e+006 1.023808048239e+006 1.021066864817e+006 1.108452815020e+006 1.016043829166e+006 1.000000000000e+006 1.012662847856e+006 1.000000000000e+006 1.009995420824e+006 1.079769267418e+006 1.014530422416e+006 1.114262186925e+006 1.013219987409e+006 1.064687048982e+006 1.005707753647e+006 1.090969040278e+006 1.067202528445e+006 1.141760081416e+006 1.141773595588e+006 1.142124406878e+006 1.141408105838e+006 1.000000000000e+006 1.000000000000e+006 1.000000000000e+006 1.000000000000e+006 1.136777578081e+006 1.000000000000e+006 1.000000000000e+006 1.129871570759e+006 1.137215830220e+006 1.141005855547e+006 1.062723047952e+006 1.000000000000e+006 1.074716387102e+006 1.085483777431e+006 1.000033722492e+006 1.000033736278e+006 1.000182876746e+006 1.000183000255e+006 1.141922655865e+006 1.138113060439e+006 1.000415604094e+006 1.000415316053e+006 1.000349648492e+006 1.000349899787e+006 1.137477292480e+006 1.140959651570e+006 
        </DataArray>
        <DataArray type="Float64" Name="MOLAR_FRACTION" format="ascii">