<?xml version="1.0"?>
<VTKFile type="UnstructuredGrid" version="0.1" byte_order="LittleEndian">
  <UnstructuredGrid>
    <Piece NumberOfPoints="963" NumberOfCells="1758">
      <Points>
        <DataArray type="Float64" NumberOfComponents="3" format="ascii">
          1.600262034769e+002 1.257989505921e+001 0.000000000000e+000
          1.635346199106e+002 2.000000000000e+001 0.000000000000e+000
          1.554515002484e+002 2.000000000000e+001 0.000000000000e+000
          3.459306441575e+000 1.667621982453e+001 0.000000000000e+000
          3.062266634850e+000 1.705413688405e+001 0.000000000000e+000
          2.873380769063e+000 1.650527725632e+001 0.000000000000e+000
          1.514088444034e+000 1.865189448105e+001 0.000000000000e+000
          1.967902677551e+000 1.834103489750e+001 0.000000000000e+000
          2.034564522234e+000 1.890806711991e+001 0.000000000000e+000
          2.478275273162e+000 1.702762299110e+001 0.000000000000e+000
          2.952621433467e+000 1.774357373580e+001 0.000000000000e+000
          2.237893542067e+000 1.782457469610e+001 0.000000000000e+000
          3.313583922780e+000 3.274674552047e+000 0.000000000000e+000
          2.561432712787e+000 3.156040447793e+000 0.000000000000e+000
          3.047531989640e+000 2.714594415171e+000 0.000000000000e+000
          2.750804692284e+000 3.936058190693e+000 0.000000000000e+000
          2.599039179818e+000 2.451529939148e+000 0.000000000000e+000
          3.139686649742e+000 2.186924052088e+000 0.000000000000e+000
          1.919984553221e+000 3.358010194268e+000 0.000000000000e+000
          1.960900304591e+000 2.773319745251e+000 0.000000000000e+000
          1.894565400391e+000 1.733316857565e+001 0.000000000000e+000
          0.000000000000e+000 1.538461538461e+001 0.000000000000e+000
          5.816229249735e-001 1.567919247147e+001 0.000000000000e+000
          0.000000000000e+000 1.589743589743e+001 0.000000000000e+000
          9.766405669483e+001 2.000000000000e+001 0.000000000000e+000
          1.010672711393e+002 1.500000000000e+001 0.000000000000e+000
          1.029329279907e+002 2.000000000000e+001 0.000000000000e+000
          9.588503785413e+001 1.500000000000e+001 0.000000000000e+000
          1.039231647117e+002 1.000000000000e+001 0.000000000000e+000
          9.860830811271e+001 1.000000000000e+001 0.000000000000e+000
          1.010672711397e+002 5.000000000000e+000 0.000000000000e+000
          9.766405669557e+001 0.000000000000e+000 0.000000000000e+000
          1.029329279915e+002 0.000000000000e+000 0.000000000000e+000
          9.588503785449e+001 5.000000000000e+000 0.000000000000e+000
          7.892434178002e+001 2.000000000000e+001 0.000000000000e+000
          8.173808356948e+001 1.500000000000e+001 0.000000000000e+000
          8.328058896910e+001 2.000000000000e+001 0.000000000000e+000
          7.679274808893e+001 1.514423393202e+001 0.000000000000e+000
          7.970503892166e+001 1.000000000000e+001 0.000000000000e+000
          8.409930620613e+001 1.000000000000e+001 0.000000000000e+000
          8.173808356980e+001 5.000000000000e+000 0.000000000000e+000
          7.892434178065e+001 0.000000000000e+000 0.000000000000e+000
          8.328058896976e+001 0.000000000000e+000 0.000000000000e+000
          7.679274808925e+001 4.855766067979e+000 0.000000000000e+000
          1.084583939765e+002 2.000000000000e+001 0.000000000000e+000
          1.122011528880e+002 1.500000000000e+001 0.000000000000e+000
          1.142529496098e+002 2.000000000000e+001 0.000000000000e+000
          1.065018792644e+002 1.500000000000e+001 0.000000000000e+000
          1.153419838410e+002 1.000000000000e+001 0.000000000000e+000
          1.094968549120e+002 1.000000000000e+001 0.000000000000e+000
          1.122011528884e+002 5.000000000000e+000 0.000000000000e+000
          1.084583939773e+002 0.000000000000e+000 0.000000000000e+000
          1.142529496106e+002 0.000000000000e+000 0.000000000000e+000
          1.065018792648e+002 5.000000000000e+000 0.000000000000e+000
          1.181779812237e+002 1.500000000000e+001 0.000000000000e+000
          1.203297004775e+002 2.000000000000e+001 0.000000000000e+000
          1.214717707847e+002 1.000000000000e+001 0.000000000000e+000
          1.181779812242e+002 5.000000000000e+000 0.000000000000e+000
          1.203297004784e+002 0.000000000000e+000 0.000000000000e+000
          7.477039199538e+001 2.000000000000e+001 0.000000000000e+000
          7.551483469771e+001 1.000000000000e+001 0.000000000000e+000
          7.296959467356e+001 1.385646386579e+001 0.000000000000e+000
          7.477039199599e+001 0.000000000000e+000 0.000000000000e+000
          7.296959467379e+001 6.143536134207e+000 0.000000000000e+000
          6.918477198508e+001 1.366665532880e+001 0.000000000000e+000
          6.746477463053e+001 1.000000000000e+001 0.000000000000e+000
          7.151921701478e+001 1.000000000000e+001 0.000000000000e+000
          6.918477198529e+001 6.333344671202e+000 0.000000000000e+000
          9.263986346551e+001 2.000000000000e+001 0.000000000000e+000
          9.094345943471e+001 1.500000000000e+001 0.000000000000e+000
          9.354026529380e+001 1.000000000000e+001 0.000000000000e+000
          9.263986346623e+001 0.000000000000e+000 0.000000000000e+000
          9.094345943506e+001 5.000000000000e+000 0.000000000000e+000
          1.244344522558e+002 1.503312574389e+001 0.000000000000e+000
          1.267023895482e+002 2.000000000000e+001 0.000000000000e+000
          1.285510028831e+002 1.020485663255e+001 0.000000000000e+000
          1.244344522563e+002 5.033125743893e+000 0.000000000000e+000
          1.267023895491e+002 0.000000000000e+000 0.000000000000e+000
          8.623136018348e+001 1.500000000000e+001 0.000000000000e+000
          8.784898578901e+001 2.000000000000e+001 0.000000000000e+000
          8.870757443665e+001 1.000000000000e+001 0.000000000000e+000
          8.623136018382e+001 5.000000000000e+000 0.000000000000e+000
          8.784898578969e+001 0.000000000000e+000 0.000000000000e+000
          4.872472752737e+000 0.000000000000e+000 0.000000000000e+000
          4.204479229380e+000 6.412840757122e-001 0.000000000000e+000
          4.157376851380e+000 0.000000000000e+000 0.000000000000e+000
          5.192892237051e+000 7.280355562789e-001 0.000000000000e+000
          1.306630304579e+000 6.212843344151e-001 0.000000000000e+000
          1.050228457081e+000 0.000000000000e+000 0.000000000000e+000
          1.614006202528e+000 0.000000000000e+000 0.000000000000e+000
          1.266763055794e+001 1.554696422866e+001 0.000000000000e+000
          1.263589100638e+001 1.657720348306e+001 0.000000000000e+000
          1.174268578662e+001 1.633018318031e+001 0.000000000000e+000
          6.588835695415e+000 7.505681085529e+000 0.000000000000e+000
          6.456871838389e+000 6.658671683861e+000 0.000000000000e+000
          7.208099140752e+000 7.038822846307e+000 0.000000000000e+000
          4.412623338166e+000 9.138856431549e+000 0.000000000000e+000
          4.024185797397e+000 8.708923235630e+000 0.000000000000e+000
          4.601447447338e+000 8.507292699647e+000 0.000000000000e+000
          5.325995059827e-001 6.308307298123e+000 0.000000000000e+000
          0.000000000000e+000 6.666666666655e+000 0.000000000000e+000
          0.000000000000e+000 6.153846153835e+000 0.000000000000e+000
          3.986461521768e+000 8.146114708182e+000 0.000000000000e+000
          2.411603373059e+000 6.510912162016e+000 0.000000000000e+000
          1.807525763324e+000 6.938080373464e+000 0.000000000000e+000
          1.686779352680e+000 6.178928843543e+000 0.000000000000e+000
          2.510760620997e+000 7.229076682239e+000 0.000000000000e+000
          3.166991983438e+000 6.906135870389e+000 0.000000000000e+000
          3.452788915829e+000 6.276851216781e+000 0.000000000000e+000
          3.340122000742e+000 5.656365440432e+000 0.000000000000e+000
          4.047936562877e+000 5.873561587395e+000 0.000000000000e+000
          1.802463974828e+000 1.292744708026e+001 0.000000000000e+000
          1.383967161336e+000 1.330299552906e+001 0.000000000000e+000
          1.329690820161e+000 1.266495373033e+001 0.000000000000e+000
          2.267922292389e+000 1.431116835808e+001 0.000000000000e+000
          2.854613987538e+000 1.466581611369e+001 0.000000000000e+000
          2.339869278674e+000 1.493776402241e+001 0.000000000000e+000
          4.690956878046e+000 3.115726773737e+000 0.000000000000e+000
          4.014773718330e+000 2.850429494150e+000 0.000000000000e+000
          4.643493383296e+000 2.293565471327e+000 0.000000000000e+000
          5.186083944243e+000 1.661927139510e+000 0.000000000000e+000
          5.452965511439e+000 2.679881546544e+000 0.000000000000e+000
          5.360460104304e+000 3.539902157655e+000 0.000000000000e+000
          6.197986304192e+000 3.115706366113e+000 0.000000000000e+000
          7.929356606585e-001 1.634705420870e+001 0.000000000000e+000
          1.222819867503e+000 1.599517159419e+001 0.000000000000e+000
          1.215723647926e+000 1.546209040954e+001 0.000000000000e+000
          1.770601276021e+000 1.521217632514e+001 0.000000000000e+000
          1.242830150061e+000 1.493919370237e+001 0.000000000000e+000
          1.166444124506e+000 4.610115997312e+000 0.000000000000e+000
          1.851620547934e+000 4.486892013458e+000 0.000000000000e+000
          1.494152702314e+000 5.145235789232e+000 0.000000000000e+000
          1.353088107040e+000 4.090803091641e+000 0.000000000000e+000
          3.802567455935e+000 5.084697985980e+000 0.000000000000e+000
          1.014840185783e+000 5.494768572296e+000 0.000000000000e+000
          8.831064584820e-001 5.109311190608e+000 0.000000000000e+000
          1.727903958959e+000 1.618384478933e+001 0.000000000000e+000
          1.343261525342e+000 1.651800241408e+001 0.000000000000e+000
          3.308120627291e+000 8.593311644828e+000 0.000000000000e+000
[...]
      <PointData Scalars="LIQUID_PRESSURE">
        <DataArray type="Float64" Name="LIQUID_PRESSURE" format="ascii">
          1.000000000000e+006 1.000000000000e+006 1.000000000000e+006 1.167432389656e+006 1.170869400713e+006 1.172422645885e+006 1.183091725954e+006 1.179436465306e+006 1.178914033497e+006 1.175479546076e+006 1.171798875410e+006 1.177326706259e+006 1.168779601476e+006 1.174861260955e+006 1.170995993946e+006 1.173411677934e+006 1.174550397964e+006 1.170239952300e+006 1.179815403920e+006 1.179482983422e+006 1.180012704899e+006 1.178474037685e+006 1.185622514887e+006 1.178494028949e+006 1.000000000000e+006 1.000000000000e+006 1.000000000000e+006 1.000000000000e+006 1.000000000000e+006 1.000000000000e+006 1.000000000000e+006 1.000000000000e+006 1.000000000000e+006 1.000000000000e+006 1.000000000010e+006 1.000000000002e+006 1.000000000001e+006 1.000000000026e+006 1.000000000006e+006 1.000000000001e+006 1.000000000002e+006 1.000000000010e+006 1.000000000001e+006 1.000000000026e+006 1.000000000000e+006 1.000000000000e+006 1.000000000000e+006 1.000000000000e+006 1.000000000000e+006 1.000000000000e+006 1.000000000000e+006 1.000000000000e+006 1.000000000000e+006 1.000000000000e+006 1.000000000000e+006 1.000000000000e+006 1.000000000000e+006 1.000000000000e+006 1.000000000000e+006 1.000000000071e+006 1.000000000046e+006 1.000000000157e+006 1.000000000071e+006 1.000000000157e+006 1.000000000916e+006 1.000000001913e+006 1.000000000298e+006 1.000000000916e+006 1.000000000000e+006 1.000000000000e+006 1.000000000000e+006 1.000000000000e+006 1.000000000000e+006 1.000000000000e+006 1.000000000000e+006 1.000000000000e+006 1.000000000000e+006 1.000000000000e+006 1.000000000000e+006 1.000000000000e+006 1.000000000000e+006 1.000000000000e+006 1.000000000000e+006 1.152137709707e+006 1.159991740595e+006 1.160385819047e+006 1.148177374280e+006 1.184701784806e+006 1.186152731190e+006 1.182302014250e+006 1.055345145442e+006 1.055682733107e+006 1.064257061523e+006 1.129400691368e+006 1.131234775775e+006 1.120782643991e+006 1.157592038083e+006 1.161847666077e+006 1.155421184975e+006 1.185019843739e+006 1.178480928722e+006 1.178441678447e+006 1.162289236413e+006 1.175990030382e+006 1.180795206054e+006 1.181760495628e+006 1.175237890214e+006 1.170031233716e+006 1.167461882100e+006 1.168522705886e+006 1.161648910184e+006 1.180757430932e+006 1.184083037052e+006 1.184445419175e+006 1.177088577677e+006 1.172566332455e+006 1.176542544356e+006 1.154351916406e+006 1.161967433910e+006 1.154913498755e+006 1.148250402044e+006 1.144795021793e+006 1.145991268110e+006 1.134793223494e+006 1.186385907155e+006 1.185279050408e+006 1.185269002558e+006 1.181022546959e+006 1.184975678587e+006 1.185444952369e+006 1.180375024970e+006 1.183260427266e+006 1.184253567796e+006 1.164138189344e+006 1.186091810084e+006 1.186574720338e+006 1.181376728685e+006 1.184342320642e+006 1.168784956835e+006 1.173955358207e+006 1.170310525806e+006 1.186293500869e+006 1.186381997925e+006 1.184691285337e+006 1.186533880243e+006 1.186221079407e+006 1.183828478359e+006 1.172013355607e+006 1.186413435031e+006 1.172180801004e+006 1.174756468190e+006 1.182830815331e+006 1.178529055333e+006 1.184765262853e+006 1.181587592360e+006 1.178044782736e+006 1.161510582104e+006 1.152128251608e+006 1.148509811913e+006 1.142558026620e+006 1.137528243924e+006 1.183503930029e+006 1.183787323746e+006 1.186227741680e+006 1.186620707141e+006 1.181432257864e+006 1.178489118547e+006 1.183048657495e+006 1.178568215132e+006 1.176848025257e+006 1.164246048023e+006 1.160006114163e+006 1.183513065094e+006 1.185829108014e+006 1.174065735114e+006 1.170122813553e+006 1.173250856806e+006 1.183386697700e+006 1.178453134734e+006 1.186155970325e+006 1.180243975915e+006 1.180634893502e+006 1.171384509798e+006 1.175573550764e+006 1.186484157638e+006 1.186087727717e+006 1.170040574378e+006 1.166746807018e+006 1.181079997951e+006 1.177154238404e+006 1.135886731395e+006 1.125286727470e+006 1.177468314246e+006 1.176993838468e+006 1.186567690280e+006 1.177061717299e+006 1.183246332519e+006 1.174987219332e+006 1.166417093644e+006 1.166591372171e+006 1.160309476588e+006 1.179327215966e+006 1.181596154126e+006 1.185144319384e+006 1.186360368986e+006 1.185144408295e+006 1.182621271293e+006 1.169485176444e+006 1.170346758715e+006 1.183808817868e+006 1.185913724016e+006 1.182665451677e+006 1.178460034153e+006 1.000000005044e+006 1.000000005044e+006 1.174037722300e+006 1.177304585319e+006 1.186640576350e+006 1.106582065396e+006 1.114619278438e+006 1.100373552127e+006 1.164869005467e+006 1.157749922875e+006 1.186152992497e+006 1.183286431254e+006 1.186268972619e+006 1.180468952713e+006 1.175327003435e+006 1.186316277160e+006 1.179590985245e+006 1.185814574401e+006 1.185469860235e+006 1.173804884986e+006 1.166808730995e+006 1.185742831677e+006 1.165496597149e+006 1.180414889785e+006 1.180893279580e+006 1.168415029870e+006 1.177355156426e+006 1.182493059383e+006 1.185415973597e+006 1.185151359672e+006 1.178463780836e+006 1.178506348338e+006 1.178404179637e+006 1.178497797029e+006 1.184202985901e+006 1.178732330446e+006 1.184068542088e+006 1.186197625891e+006 1.185893462070e+006 1.178820466544e+006 1.182159324053e+006 1.178615031636e+006 1.178557377469e+006 1.184420723596e+006 1.178488552403e+006 1.184773049798e+006 1.178470444570e+006 1.183394540134e+006 1.178508313387e+006 1.178530711606e+006 1.000000052786e+006 1.000000014507e+006 1.000000012510e+006 1.000000087521e+006 1.000000011782e+006 1.000000049798e+006 1.000000014505e+006 1.000000052777e+006 1.000000012508e+006 1.000000087507e+006 1.000000011781e+006 1.000000049792e+006 1.000000650788e+006 1.000000316788e+006 1.000000193361e+006 1.000001023874e+006 1.000000183092e+006 1.000000618607e+006 1.000000316739e+006 1.000000650682e+006 1.000000193328e+006 1.000001023722e+006 1.000000183070e+006 1.000000618535e+006 1.000305089263e+006 1.000204969629e+006 1.000156183001e+006 1.000390992932e+006 1.000151289643e+006 1.000296512069e+006 1.000204949211e+006 1.000305057558e+006 1.000156165421e+006 1.000390957314e+006 1.000151277977e+006 1.000296491490e+006 1.000075227821e+006 1.000046867637e+006 1.000033923602e+006 1.000101205698e+006 1.000032663691e+006 1.000072648959e+006 1.000046862137e+006 1.000075218667e+006 1.000033919161e+006 1.000101194721e+006 1.000032660691e+006 1.000072642811e+006 1.001651630059e+006 1.001275401666e+006 1.000990335321e+006 1.002032853488e+006 1.001275297868e+006 1.001651490400e+006 1.000990247317e+006 1.002032699192e+006 1.000014248777e+006 1.000008130447e+006 1.000005543997e+006 1.000020258302e+006 1.000005305423e+006 1.000013678337e+006 1.000008129355e+006 1.000014246784e+006 1.000005543175e+006 1.000020255749e+006 1.000005304865e+006 1.000013676987e+006 1.000001986223e+006 1.000003012441e+006 1.000001894531e+006 1.000001985913e+006 1.000003012014e+006 1.000001894322e+006 1.000563685792e+006 1.000782715703e+006 1.000549861193e+006 1.000563631580e+006 1.000782651947e+006 1.000549827378e+006 1.000976548437e+006 1.000976496131e+006 1.000001250006e+006 1.000002528271e+006 1.000000846546e+006 1.000003618065e+006 1.000001249930e+006 1.000003617856e+006 1.000114898661e+006 1.000181462558e+006 1.000088862144e+006 1.000230004669e+006 1.000114893790e+006 1.000229995949e+006 1.000000393589e+006 1.000000257377e+006 1.000000393564e+006 1.001421665887e+006 1.001640088730e+006 1.001640162936e+006 1.001421704570e+006 1.000006914822e+006 1.000009615726e+006 1.000009615203e+006 1.000053890996e+006 1.000040765328e+006 1.000053888481e+006 1.000023614017e+006 1.000017434802e+006 1.000023612820e+006 1.000780936030e+006 1.000780960195e+006 1.000348608838e+006 1.000434397697e+006 1.000434383273e+006 1.000000111248e+006 1.000000069814e+006 1.000000111241e+006 1.000682105466e+006 1.000000024634e+006 1.000000009383e+006 1.000000024633e+006 1.000000001989e+006 1.000000003325e+006 1.000000001989e+006 1.000000003325e+006 1.117279534398e+006 1.108457488937e+006 1.120421957268e+006 1.104139232888e+006 1.172827137337e+006 1.174184568506e+006 1.177588107185e+006 1.172803556465e+006 1.177595977470e+006 1.152436205423e+006 1.150108221370e+006 1.182339454746e+006 1.184908837396e+006 1.140396544280e+006 1.000000000000e+006 1.000000000000e+006 1.000000000000e+006 1.131893815673e+006 1.120421242797e+006 1.124237492728e+006 1.129996302588e+006 1.162907850124e+006 1.174897351638e+006 1.185870353270e+006 1.162622280694e+006 1.182547434110e+006 1.176478826353e+006 1.181320681642e+006 1.117350225283e+006 1.116758175923e+006 1.104779517493e+006 1.176707971373e+006 1.171426241286e+006 1.178509990991e+006 1.184754127826e+006 1.178427309890e+006 1.108452098161e+006 1.117816812190e+006 1.117838554709e+006 1.123847762586e+006 1.110708368152e+006 1.131182330095e+006 1.104151155286e+006 1.091897386544e+006 1.098203922985e+006 1.104133507398e+006 1.185768336133e+006 1.162239305096e+006 1.164274985071e+006 1.168783168352e+006 1.104473991409e+006 1.098032725512e+006 1.091245930903e+006 1.086280960954e+006 1.166681772817e+006 1.172720875779e+006 1.067494067830e+006 1.065519744595e+006 1.075345271359e+006 1.123630425515e+006 1.130449704163e+006 1.055537730218e+006 1.067741772440e+006 1.061174812714e+006 1.158491672003e+006 1.142212562630e+006 1.135881983972e+006 1.045149922984e+006 1.046169630142e+006 1.181868411497e+006 1.185152032110e+006 1.117178346750e+006 1.129598067742e+006 1.112736805663e+006 1.116429027658e+006 1.104233212348e+006 1.103118755751e+006 1.141049532526e+006 1.080988459161e+006 1.086362288044e+006 1.065631608779e+006 1.058587702449e+006 1.054106959427e+006 1.092202338173e+006 1.051579382180e+006 1.059287331919e+006 1.061723335086e+006 1.048081317181e+006 1.159400224335e+006 1.162468348733e+006 1.080429642998e+006 1.089321487034e+006 1.146357046597e+006 1.168955332147e+006 1.152469690754e+006 1.154904677744e+006 1.186085400498e+006 1.186464740001e+006 1.174094481272e+006 1.178055504549e+006 1.135491092125e+006 1.141217217167e+006 1.102797543776e+006 1.095334205063e+006 1.090643998730e+006 1.109091283793e+006 1.097624857735e+006 1.090387896295e+006 1.106189753875e+006 1.136777092812e+006 1.137143476109e+006 1.143805859088e+006 1.110817453199e+006 1.151915828616e+006 1.127707991719e+006 1.150641946374e+006 1.145754481111e+006 1.079198388273e+006 1.068616077245e+006 1.075258910378e+006 1.158472302400e+006 1.165370030905e+006 1.146554966148e+006 1.099381330953e+006 1.154455566301e+006 1.071397394051e+006 1.076475546962e+006 1.186266367769e+006 1.184808923894e+006 1.156640899198e+006 1.150498002058e+006 1.157082452490e+006 1.127602574202e+006 1.154043157979e+006 1.110973133714e+006 1.099940068684e+006 1.179504518471e+006 1.167738404633e+006 1.170862289550e+006 1.161796859439e+006 1.121176984600e+006 1.117063245064e+006 1.120317251523e+006 1.128132941408e+006 1.150411384355e+006 1.181592358871e+006 1.176361835338e+006 1.084367203002e+006 1.090343330857e+006 1.092981893491e+006 1.081407023076e+006 1.137314965019e+006 1.069375609183e+006 1.057780620851e+006 1.061240845039e+006 1.139396512847e+006 1.158492497907e+006 1.177900437651e+006 1.114612969896e+006 1.084220735243e+006 1.079609580133e+006 1.073022048949e+006 1.090635830337e+006 1.090578154743e+006 1.178321330495e+006 1.180885871224e+006 1.173093826576e+006 1.075765130314e+006 1.070727562922e+006 1.126262875848e+006 1.134595780991e+006 1.135367794578e+006 1.078941789137e+006 1.089883831302e+006 1.086178473872e+006 1.178425338070e+006 1.186031241088e+006 1.183217807123e+006 1.162870492366e+006 1.164957004708e+006 1.083337226957e+006 1.097169598652e+006 1.144221908519e+006 1.185904936373e+006 1.185862725305e+006 1.100815744763e+006 1.091566453272e+006 1.094883292920e+006 1.173438266081e+006 1.120833550704e+006 1.155396866645e+006 1.080793427217e+006 1.143466204966e+006 1.175744494910e+006 1.172331831639e+006 1.179086191221e+006 1.109741513322e+006 1.070353838192e+006 1.172639391334e+006 1.168680559558e+006 1.099618307122e+006 1.063406211031e+006 1.072480062818e+006 1.170634743603e+006 1.184982107917e+006 1.183554194230e+006 1.086089971791e+006 1.081090770381e+006 1.074421962698e+006 1.000000000000e+006 1.000000000000e+006 1.000000000000e+006 1.107885143515e+006 1.184540392953e+006 1.175460897929e+006 1.174303363016e+006 1.171082917809e+006 1.156371593335e+006 1.108244034176e+006 1.167216034158e+006 1.155179210275e+006 1.150154184999e+006 1.000000000601e+006 1.000000000601e+006 1.184710599416e+006 1.178492662074e+006 1.182239960421e+006 1.150263145529e+006 1.092856343258e+006 1.142081795578e+006 1.098491923122e+006 1.186455025839e+006 1.123770571763e+006 1.183315113275e+006 1.076648565141e+006 1.078550805637e+006 1.117769007510e+006 1.000000000000e+006 1.000000000000e+006 1.161808439392e+006 1.143096531593e+006 1.146489104973e+006 1.136198413060e+006 1.111248493808e+006 1.185528798750e+006 1.002424564102e+006 1.002328462645e+006 1.002424491729e+006 1.002328426236e+006 1.167458105832e+006 1.186245442084e+006 1.112206243675e+006 1.186267254207e+006 1.002092255587e+006 1.001730507489e+006 1.001290252935e+006 1.001730523619e+006 1.071110749387e+006 1.063617457023e+006 1.183629277889e+006 1.077019415541e+006 1.165512187625e+006 1.169473758664e+006 1.160688087828e+006 1.157304410665e+006 1.185909116415e+006 1.186504705054e+006 1.178356715288e+006 1.185359216315e+006 1.056475039444e+006 1.068247981687e+006 1.000000000000e+006 1.000000000000e+006 1.183817216373e+006 1.179020107469e+006 1.162589844107e+006 1.175416044889e+006 1.102387600002e+006 1.183941007920e+006 1.111443476044e+006 1.000000000414e+006 1.000000000414e+006 1.049689049105e+006 1.134233138862e+006 1.040214168323e+006 1.035079864221e+006 1.031528686032e+006 1.070914744457e+006 1.160758123662e+006 1.163784186602e+006 1.059795333269e+006 1.000000000000e+006 1.000000000000e+006 1.051109837621e+006 1.178501828383e+006 1.178608312382e+006 1.062213968459e+006 1.178586018221e+006 1.183646533890e+006 1.178479993348e+006 1.066537896587e+006 1.003971328538e+006 1.003069972859e+006 1.002942212968e+006 1.004949148538e+006 1.004563930334e+006 1.003069983649e+006 1.004949134095e+006 1.004563926524e+006 1.005859691527e+006 1.007199837840e+006 1.006363192876e+006 1.007199810352e+006 1.006363110159e+006 1.008395798695e+006 1.010138064151e+006 1.009048965957e+006 1.010137814031e+006 1.009049171437e+006 1.011669661974e+006 1.013875147333e+006 1.012498407426e+006 1.013872386843e+006 1.012498387295e+006 1.015781133626e+006 1.018523673254e+006 1.016809686011e+006 1.018505226314e+006 1.016805576150e+006 1.020825047391e+006 1.024255901011e+006 1.022104186456e+006 1.024160485645e+006 1.022064915382e+006 1.003460429955e+006 1.003599180260e+006 1.005050103104e+006 1.005595762499e+006 1.003599222518e+006 1.003460534197e+006 1.005050191767e+006 1.005595768628e+006 1.007328760093e+006 1.008056259998e+006 1.007328740948e+006 1.008056290611e+006 1.010304844621e+006 1.011238659275e+006 1.010304975941e+006 1.011238191679e+006 1.014079146403e+006 1.015254642483e+006 1.014079270950e+006 1.015249529692e+006 1.009663136059e+006 1.011873353541e+006 1.008572671311e+006 1.013240355083e+006 1.007780912066e+006 1.011214334945e+006 1.011875084901e+006 1.009664099082e+006 1.008573596068e+006 1.013242003639e+006 1.007781398551e+006 1.011214897948e+006 1.016023496295e+006 1.017747427436e+006 1.015228547731e+006 1.016027138967e+006 1.017750673037e+006 1.015228734427e+006 1.021094844198e+006 1.023345312842e+006 1.020218989846e+006 1.021102922075e+006 1.023355015126e+006 1.020215671656e+006 1.027155742243e+006 1.030624839835e+006 1.025810140466e+006 1.027167735820e+006 1.030571399005e+006 1.026171549736e+006 1.034244984754e+006 1.038793598527e+006 1.034252055597e+006 1.038307046647e+006 1.018753847569e+006 1.020236569141e+006 1.018751564523e+006 1.020202002717e+006 1.004374236290e+006 1.002452415640e+006 1.003294320398e+006 1.004374426099e+006 1.002452544871e+006 1.003294557202e+006 1.006375067688e+006 1.005262876701e+006 1.006375279285e+006 1.005263241007e+006 1.009075231707e+006 1.009075413720e+006 1.012533472903e+006 1.012533479414e+006 1.016887831514e+006 1.016887255674e+006 1.084083281239e+006 1.096311315637e+006 1.084301177542e+006 1.184534412736e+006 1.022354991718e+006 1.022352209162e+006 1.042389241067e+006 1.042393856339e+006 1.026918898729e+006 1.031412559088e+006 1.028718408070e+006 1.031086485267e+006 1.028408107658e+006 1.024465113781e+006 1.026459210617e+006 1.024442042978e+006 1.026269592876e+006 1.028120048341e+006 1.072648381811e+006 1.028735438193e+006 1.084285281580e+006 1.096304331402e+006 1.047560507090e+006 1.051583475516e+006 1.031367368465e+006 1.037055470573e+006 1.033932087532e+006 1.033759194746e+006 1.034337121913e+006 1.038294406924e+006 1.038152017699e+006 1.039470243981e+006 1.037398823665e+006 1.043684978795e+006 1.041427782584e+006 1.043467140453e+006 1.038498759255e+006 1.043621545620e+006 1.049212225320e+006 1.128215604056e+006 1.078610984177e+006 1.048573997512e+006 1.138267202053e+006 1.184847317296e+006 1.047194394220e+006 1.000000000000e+006 1.000000000000e+006 1.000000000000e+006 1.123963350723e+006 1.130897610637e+006 1.138787495316e+006 1.133140189444e+006 1.125253642075e+006 1.167281615152e+006 1.178483781322e+006 1.137815803225e+006 1.178614566813e+006 1.118811739068e+006 1.061692125323e+006 1.058586128978e+006 1.167006002881e+006 1.150360566745e+006 1.055372146628e+006 1.050313995379e+006 1.128282795715e+006 1.053735214358e+006 1.055718375926e+006 1.087237875758e+006 1.070678283262e+006 1.032277134638e+006 1.124366975698e+006 1.000000000163e+006 1.000000000163e+006 1.158756621576e+006 1.001123740012e+006 1.001123724886e+006 1.043162040867e+006 1.150430804769e+006 1.129178714260e+006 1.042266624318e+006 1.141391501131e+006 1.144582998988e+006 1.183047303751e+006 1.036189765102e+006 1.037814742662e+006 1.036786399274e+006 1.112142089729e+006 1.000000000000e+006 1.000000000000e+006 1.098131550249e+006 1.067965709098e+006 1.000000000000e+006 1.178386874818e+006 1.185188883233e+006 1.178549954333e+006 1.046358260028e+006 1.121960824612e+006 1.000000000000e+006 1.160162080818e+006 1.160396985800e+006 1.142560076205e+006 1.056856331232e+006 1.155676261707e+006 1.002636842543e+006 1.002637061388e+006 1.160210029137e+006 1.183529213151e+006 1.077715654690e+006 1.164710537234e+006 1.155338189283e+006 1.181857469802e+006 1.166971415848e+006 1.172496199626e+006 1.136012410907e+006 1.103094068854e+006 1.108457953770e+006 1.149792510065e+006 1.178577220652e+006 1.153531872833e+006 1.178556608461e+006 1.072662492787e+006 1.067508015375e+006 1.167313179257e+006 1.057354834828e+006 1.000000000000e+006 1.049824432986e+006 1.000000000000e+006 1.043282498568e+006 1.144122627493e+006 1.054087317458e+006 1.171521377346e+006 1.051071720477e+006 1.129221170818e+006 1.031098469786e+006 1.153843587848e+006 1.131888377065e+006 1.178408893519e+006 1.178489080927e+006 1.178523281999e+006 1.178623436685e+006 1.000000000000e+006 1.000000000000e+006 1.000000000000e+006 1.000000000000e+006 1.183075519532e+006 1.000000000000e+006 1.000000000000e+006 1.186344324390e+006 1.182714897003e+006 1.179008087734e+006 1.127092368123e+006 1.000000000000e+006 1.139435257021e+006 1.149225060841e+006 1.001415616160e+006 1.001415710060e+006 1.004041616995e+006 1.004041960691e+006 1.178526850002e+006 1.181893118755e+006 1.006632809138e+006 1.006632227976e+006 1.005983289351e+006 1.005983831518e+006 1.182608813587e+006 1.179016966057e+006 
        </DataArray>
        <DataArray type="Float64" Name="MOLAR_FRACTION" format="ascii">