<?xml version="1.0"?>
<VTKFile type="UnstructuredGrid" version="0.1" byte_order="LittleEndian">
  <UnstructuredGrid>
    <Piece NumberOfPoints="963" NumberOfCells="1758">
      <Points>
        <DataArray type="Float64" NumberOfComponents="3" format="ascii">
          1.600262034769e+002 1.257989505921e+001 0.000000000000e+000
          1.635346199106e+002 2.000000000000e+001 0.000000000000e+000
          1.554515002484e+002 2.000000000000e+001 0.000000000000e+000
          3.459306441575e+000 1.667621982453e+001 0.000000000000e+000
          3.062266634850e+000 1.705413688405e+001 0.000000000000e+000
          2.873380769063e+000 1.650527725632e+001 0.000000000000e+000
          1.514088444034e+000 1.865189448105e+001 0.000000000000e+000
          1.967902677551e+000 1.834103489750e+001 0.000000000000e+000
          2.034564522234e+000 1.890806711991e+001 0.000000000000e+000
          2.478275273162e+000 1.702762299110e+001 0.000000000000e+000
          2.952621433467e+000 1.774357373580e+001 0.000000000000e+000
          2.237893542067e+000 1.782457469610e+001 0.000000000000e+000
          3.313583922780e+000 3.274674552047e+000 0.000000000000e+000
          2.561432712787e+000 3.156040447793e+000 0.000000000000e+000
          3.047531989640e+000 2.714594415171e+000 0.000000000000e+000
          2.750804692284e+000 3.936058190693e+000 0.000000000000e+000
          2.599039179818e+000 2.451529939148e+000 0.000000000000e+000
          3.139686649742e+000 2.186924052088e+000 0.000000000000e+000
          1.919984553221e+000 3.358010194268e+000 0.000000000000e+000
          1.960900304591e+000 2.773319745251e+000 0.000000000000e+000
          1.894565400391e+000 1.733316857565e+001 0.000000000000e+000
          0.000000000000e+000 1.538461538461e+001 0.000000000000e+000
          5.816229249735e-001 1.567919247147e+001 0.000000000000e+000
          0.000000000000e+000 1.589743589743e+001 0.000000000000e+000
          9.766405669483e+001 2.000000000000e+001 0.000000000000e+000
          1.010672711393e+002 1.500000000000e+001 0.000000000000e+000
          1.029329279907e+002 2.000000000000e+001 0.000000000000e+000
          9.588503785413e+001 1.500000000000e+001 0.000000000000e+000
          1.039231647117e+002 1.000000000000e+001 0.000000000000e+000
          9.860830811271e+001 1.000000000000e+001 0.000000000000e+000
          1.010672711397e+002 5.000000000000e+000 0.000000000000e+000
          9.766405669557e+001 0.000000000000e+000 0.000000000000e+000
          1.029329279915e+002 0.000000000000e+000 0.000000000000e+000
          9.588503785449e+001 5.000000000000e+000 0.000000000000e+000
          7.892434178002e+001 2.000000000000e+001 0.000000000000e+000
          8.173808356948e+001 1.500000000000e+001 0.000000000000e+000
          8.328058896910e+001 2.000000000000e+001 0.000000000000e+000
          7.679274808893e+001 1.514423393202e+001 0.000000000000e+000
          7.970503892166e+001 1.000000000000e+001 0.000000000000e+000
          8.409930620613e+001 1.000000000000e+001 0.000000000000e+000
          8.173808356980e+001 5.000000000000e+000 0.000000000000e+000
          7.892434178065e+001 0.000000000000e+000 0.000000000000e+000
          8.328058896976e+001 0.000000000000e+000 0.000000000000e+000
          7.679274808925e+001 4.855766067979e+000 0.000000000000e+000
          1.084583939765e+002 2.000000000000e+001 0.000000000000e+000
          1.122011528880e+002 1.500000000000e+001 0.000000000000e+000
          1.142529496098e+002 2.000000000000e+001 0.000000000000e+000
          1.065018792644e+002 1.500000000000e+001 0.000000000000e+000
          1.153419838410e+002 1.000000000000e+001 0.000000000000e+000
          1.094968549120e+002 1.000000000000e+001 0.000000000000e+000
          1.122011528884e+002 5.000000000000e+000 0.000000000000e+000
          1.084583939773e+002 0.000000000000e+000 0.000000000000e+000
          1.142529496106e+002 0.000000000000e+000 0.000000000000e+000
          1.065018792648e+002 5.000000000000e+000 0.000000000000e+000
          1.181779812237e+002 1.500000000000e+001 0.000000000000e+000
          1.203297004775e+002 2.000000000000e+001 0.000000000000e+000
          1.214717707847e+002 1.000000000000e+001 0.000000000000e+000
          1.181779812242e+002 5.000000000000e+000 0.000000000000e+000
          1.203297004784e+002 0.000000000000e+000 0.000000000000e+000
          7.477039199538e+001 2.000000000000e+001 0.000000000000e+000
          7.551483469771e+001 1.000000000000e+001 0.000000000000e+000
          7.296959467356e+001 1.385646386579e+001 0.000000000000e+000
          7.477039199599e+001 0.000000000000e+000 0.000000000000e+000
          7.296959467379e+001 6.143536134207e+000 0.000000000000e+000
          6.918477198508e+001 1.366665532880e+001 0.000000000000e+000
          6.746477463053e+001 1.000000000000e+001 0.000000000000e+000
          7.151921701478e+001 1.000000000000e+001 0.000000000000e+000
          6.918477198529e+001 6.333344671202e+000 0.000000000000e+000
          9.263986346551e+001 2.000000000000e+001 0.000000000000e+000
          9.094345943471e+001 1.500000000000e+001 0.000000000000e+000
          9.354026529380e+001 1.000000000000e+001 0.000000000000e+000
          9.263986346623e+001 0.000000000000e+000 0.000000000000e+000
          9.094345943506e+001 5.000000000000e+000 0.000000000000e+000
          1.244344522558e+002 1.503312574389e+001 0.000000000000e+000
          1.267023895482e+002 2.000000000000e+001 0.000000000000e+000
          1.285510028831e+002 1.020485663255e+001 0.000000000000e+000
          1.244344522563e+002 5.033125743893e+000 0.000000000000e+000
          1.267023895491e+002 0.000000000000e+000 0.000000000000e+000
          8.623136018348e+001 1.500000000000e+001 0.000000000000e+000
          8.784898578901e+001 2.000000000000e+001 0.000000000000e+000
          8.870757443665e+001 1.000000000000e+001 0.000000000000e+000
          8.623136018382e+001 5.000000000000e+000 0.000000000000e+000
          8.784898578969e+001 0.000000000000e+000 0.000000000000e+000
          4.872472752737e+000 0.000000000000e+000 0.000000000000e+000
          4.204479229380e+000 6.412840757122e-001 0.000000000000e+000
          4.157376851380e+000 0.000000000000e+000 0.000000000000e+000
          5.192892237051e+000 7.280355562789e-001 0.000000000000e+000
          1.306630304579e+000 6.212843344151e-001 0.000000000000e+000
          1.050228457081e+000 0.000000000000e+000 0.000000000000e+000
          1.614006202528e+000 0.000000000000e+000 0.000000000000e+000
          1.266763055794e+001 1.554696422866e+001 0.000000000000e+000
          1.263589100638e+001 1.657720348306e+001 0.000000000000e+000
          1.174268578662e+001 1.633018318031e+001 0.000000000000e+000
          6.588835695415e+000 7.505681085529e+000 0.000000000000e+000
          6.456871838389e+000 6.658671683861e+000 0.000000000000e+000
          7.208099140752e+000 7.038822846307e+000 0.000000000000e+000
          4.412623338166e+000 9.138856431549e+000 0.000000000000e+000
          4.024185797397e+000 8.708923235630e+000 0.000000000000e+000
          4.601447447338e+000 8.507292699647e+000 0.000000000000e+000
          5.325995059827e-001 6.308307298123e+000 0.000000000000e+000
          0.000000000000e+000 6.666666666655e+000 0.000000000000e+000
          0.000000000000e+000 6.153846153835e+000 0.000000000000e+000
          3.986461521768e+000 8.146114708182e+000 0.000000000000e+000
          2.411603373059e+000 6.510912162016e+000 0.000000000000e+000
          1.807525763324e+000 6.938080373464e+000 0.000000000000e+000
          1.686779352680e+000 6.178928843543e+000 0.000000000000e+000
          2.510760620997e+000 7.229076682239e+000 0.000000000000e+000
          3.166991983438e+000 6.906135870389e+000 0.000000000000e+000
          3.452788915829e+000 6.276851216781e+000 0.000000000000e+000
          3.340122000742e+000 5.656365440432e+000 0.000000000000e+000
          4.047936562877e+000 5.873561587395e+000 0.000000000000e+000
          1.802463974828e+000 1.292744708026e+001 0.000000000000e+000
          1.383967161336e+000 1.330299552906e+001 0.000000000000e+000
          1.329690820161e+000 1.266495373033e+001 0.000000000000e+000
          2.267922292389e+000 1.431116835808e+001 0.000000000000e+000
          2.854613987538e+000 1.466581611369e+001 0.000000000000e+000
          2.339869278674e+000 1.493776402241e+001 0.000000000000e+000
          4.690956878046e+000 3.115726773737e+000 0.000000000000e+000
          4.014773718330e+000 2.850429494150e+000 0.000000000000e+000
          4.643493383296e+000 2.293565471327e+000 0.000000000000e+000
          5.186083944243e+000 1.661927139510e+000 0.000000000000e+000
          5.452965511439e+000 2.679881546544e+000 0.000000000000e+000
          5.360460104304e+000 3.539902157655e+000 0.000000000000e+000
          6.197986304192e+000 3.115706366113e+000 0.000000000000e+000
          7.929356606585e-001 1.634705420870e+001 0.000000000000e+000
          1.222819867503e+000 1.599517159419e+001 0.000000000000e+000
          1.215723647926e+000 1.546209040954e+001 0.000000000000e+000
          1.770601276021e+000 1.521217632514e+001 0.000000000000e+000
          1.242830150061e+000 1.493919370237e+001 0.000000000000e+000
          1.166444124506e+000 4.610115997312e+000 0.000000000000e+000
          1.851620547934e+000 4.486892013458e+000 0.000000000000e+000
          1.494152702314e+000 5.145235789232e+000 0.000000000000e+000
          1.353088107040e+000 4.090803091641e+000 0.000000000000e+000
          3.802567455935e+000 5.084697985980e+000 0.000000000000e+000
          1.014840185783e+000 5.494768572296e+000 0.000000000000e+000
          8.831064584820e-001 5.109311190608e+000 0.000000000000e+000
          1.727903958959e+000 1.618384478933e+001 0.000000000000e+000
          1.343261525342e+000 1.651800241408e+001 0.000000000000e+000
          3.308120627291e+000 8.593311644828e+000 0.000000000000e+000
[...]
      <PointData Scalars="LIQUID_PRESSURE">
        <DataArray type="Float64" Name="LIQUID_PRESSURE" format="ascii">
          1.000000000000e+006 1.000000000000e+006 1.000000000000e+006 1.018212657991e+006 1.022474107994e+006 1.024696615210e+006 1.048159301352e+006 1.038932436908e+006 1.037709483379e+006 1.030222085896e+006 1.023678919363e+006 1.034122869912e+006 1.019576835653e+006 1.028947181908e+006 1.022629619856e+006 1.026312747627e+006 1.028475807404e+006 1.021510273229e+006 1.039846908282e+006 1.039030050168e+006 1.040315878396e+006 1.077086445036e+006 1.069450100632e+006 1.076963976309e+006 1.000000000000e+006 1.000000000000e+006 1.000000000000e+006 1.000000000000e+006 1.000000000000e+006 1.000000000000e+006 1.000000000000e+006 1.000000000000e+006 1.000000000000e+006 1.000000000000e+006 1.000000000000e+006 1.000000000000e+006 1.000000000000e+006 1.000000000000e+006 1.000000000000e+006 1.000000000000e+006 1.000000000000e+006 1.000000000000e+006 1.000000000000e+006 1.000000000000e+006 1.000000000000e+006 1.000000000000e+006 1.000000000000e+006 1.000000000000e+006 1.000000000000e+006 1.000000000000e+006 1.000000000000e+006 1.000000000000e+006 1.000000000000e+006 1.000000000000e+006 1.000000000000e+006 1.000000000000e+006 1.000000000000e+006 1.000000000000e+006 1.000000000000e+006 1.000000000000e+006 1.000000000000e+006 1.000000000000e+006 1.000000000000e+006 1.000000000000e+006 1.000000000000e+006 1.000000000000e+006 1.000000000000e+006 1.000000000000e+006 1.000000000000e+006 1.000000000000e+006 1.000000000000e+006 1.000000000000e+006 1.000000000000e+006 1.000000000000e+006 1.000000000000e+006 1.000000000000e+006 1.000000000000e+006 1.000000000000e+006 1.000000000000e+006 1.000000000000e+006 1.000000000000e+006 1.000000000000e+006 1.000000000000e+006 1.008634167982e+006 1.012171883908e+006 1.012677073649e+006 1.007216390102e+006 1.052730197663e+006 1.058715656780e+006 1.046006997605e+006 1.000132021848e+006 1.000135502358e+006 1.000216423805e+006 1.003454612354e+006 1.003681422201e+006 1.002472078424e+006 1.011005974748e+006 1.013529911508e+006 1.009930552563e+006 1.070268136744e+006 1.077048070529e+006 1.076959935767e+006 1.013717495099e+006 1.031154970657e+006 1.041938754246e+006 1.044421645107e+006 1.029669485214e+006 1.021112617822e+006 1.018314740545e+006 1.019339931182e+006 1.013286751366e+006 1.042198321972e+006 1.050937502965e+006 1.052209278098e+006 1.033608202727e+006 1.024967040172e+006 1.032414933809e+006 1.009482705641e+006 1.013574593005e+006 1.009732098666e+006 1.007264885903e+006 1.006313513113e+006 1.006642470818e+006 1.004237097295e+006 1.064559364322e+006 1.054689755150e+006 1.054836582242e+006 1.042746520547e+006 1.054187372745e+006 1.055917940279e+006 1.041122807225e+006 1.048547481567e+006 1.051715900484e+006 1.015206769373e+006 1.059471349284e+006 1.062538204231e+006 1.043682453463e+006 1.051924819077e+006 1.019699150491e+006 1.027289770625e+006 1.021523873985e+006 1.063533651187e+006 1.064487758128e+006 1.052974633286e+006 1.065163899160e+006 1.061017243579e+006 1.050377409496e+006 1.023945556080e+006 1.064003464119e+006 1.024417535888e+006 1.028715442106e+006 1.073177548064e+006 1.076773616461e+006 1.053390698708e+006 1.044282200588e+006 1.035693365989e+006 1.013356569001e+006 1.008643540503e+006 1.007312455411e+006 1.005774588708e+006 1.004724818305e+006 1.049360050389e+006 1.050186127936e+006 1.061486241561e+006 1.062555827176e+006 1.043746743616e+006 1.076837008537e+006 1.073022626496e+006 1.076701955912e+006 1.033073171380e+006 1.015360191637e+006 1.012269129549e+006 1.049450833223e+006 1.057706608776e+006 1.027510201924e+006 1.021454311349e+006 1.026190017995e+006 1.072604089919e+006 1.076875724435e+006 1.058503699193e+006 1.040922700231e+006 1.041886854693e+006 1.023184190858e+006 1.030409972903e+006 1.063827217363e+006 1.066058462251e+006 1.021286311932e+006 1.017596131141e+006 1.042936310363e+006 1.033754809249e+006 1.004405340893e+006 1.002922180954e+006 1.034414400474e+006 1.033401147090e+006 1.061282564547e+006 1.033542287271e+006 1.048588694318e+006 1.029197486076e+006 1.017270923558e+006 1.017318864940e+006 1.012557590092e+006 1.038607403800e+006 1.044265872169e+006 1.054495723168e+006 1.060581373399e+006 1.054209987007e+006 1.046772461307e+006 1.020617524200e+006 1.021696644618e+006 1.050273471925e+006 1.058271492985e+006 1.047003977385e+006 1.036738437702e+006 1.000000000000e+006 1.000000000000e+006 1.027538817729e+006 1.034131884222e+006 1.061180315694e+006 1.001425054839e+006 1.001939005665e+006 1.001107444558e+006 1.015718748910e+006 1.011076968384e+006 1.059054428320e+006 1.048617680540e+006 1.061565148363e+006 1.041420664832e+006 1.029975520068e+006 1.061616793208e+006 1.039289267180e+006 1.056353284815e+006 1.054666331976e+006 1.027138253626e+006 1.017661399781e+006 1.068364964137e+006 1.016408533650e+006 1.041273646011e+006 1.042295787763e+006 1.019215960194e+006 1.034031424500e+006 1.046473916766e+006 1.069769247486e+006 1.069977583414e+006 1.077243120180e+006 1.076968883012e+006 1.077131709424e+006 1.076977948965e+006 1.071838710887e+006 1.076132956953e+006 1.071916416214e+006 1.059458928771e+006 1.067929498677e+006 1.076233575726e+006 1.073893442530e+006 1.076518890204e+006 1.076744260238e+006 1.071294213346e+006 1.076685510701e+006 1.070595161812e+006 1.076738102873e+006 1.072646119206e+006 1.076747493879e+006 1.076648190656e+006 1.000000000000e+006 1.000000000000e+006 1.000000000000e+006 1.000000000000e+006 1.000000000000e+006 1.000000000000e+006 1.000000000000e+006 1.000000000000e+006 1.000000000000e+006 1.000000000000e+006 1.000000000000e+006 1.000000000000e+006 1.000000000000e+006 1.000000000000e+006 1.000000000000e+006 1.000000000000e+006 1.000000000000e+006 1.000000000000e+006 1.000000000000e+006 1.000000000000e+006 1.000000000000e+006 1.000000000000e+006 1.000000000000e+006 1.000000000000e+006 1.000000000526e+006 1.000000000242e+006 1.000000000152e+006 1.000000000817e+006 1.000000000140e+006 1.000000000488e+006 1.000000000242e+006 1.000000000526e+006 1.000000000151e+006 1.000000000816e+006 1.000000000139e+006 1.000000000488e+006 1.000000000041e+006 1.000000000017e+006 1.000000000010e+006 1.000000000067e+006 1.000000000009e+006 1.000000000037e+006 1.000000000017e+006 1.000000000041e+006 1.000000000010e+006 1.000000000067e+006 1.000000000009e+006 1.000000000037e+006 1.000000015577e+006 1.000000009027e+006 1.000000005358e+006 1.000000024135e+006 1.000000009013e+006 1.000000015547e+006 1.000000005349e+006 1.000000024095e+006 1.000000000002e+006 1.000000000001e+006 1.000000000001e+006 1.000000000004e+006 1.000000000000e+006 1.000000000002e+006 1.000000000001e+006 1.000000000002e+006 1.000000000001e+006 1.000000000004e+006 1.000000000000e+006 1.000000000002e+006 1.000000000000e+006 1.000000000000e+006 1.000000000000e+006 1.000000000000e+006 1.000000000000e+006 1.000000000000e+006 1.000000001719e+006 1.000000003218e+006 1.000000001610e+006 1.000000001716e+006 1.000000003213e+006 1.000000001609e+006 1.000000005132e+006 1.000000005129e+006 1.000000000000e+006 1.000000000000e+006 1.000000000000e+006 1.000000000000e+006 1.000000000000e+006 1.000000000000e+006 1.000000000085e+006 1.000000000196e+006 1.000000000054e+006 1.000000000300e+006 1.000000000084e+006 1.000000000300e+006 1.000000000000e+006 1.000000000000e+006 1.000000000000e+006 1.000000010863e+006 1.000000015432e+006 1.000000015440e+006 1.000000010864e+006 1.000000000001e+006 1.000000000001e+006 1.000000000001e+006 1.000000000022e+006 1.000000000014e+006 1.000000000022e+006 1.000000000005e+006 1.000000000003e+006 1.000000000005e+006 1.000000003202e+006 1.000000003202e+006 1.000000000656e+006 1.000000001000e+006 1.000000000999e+006 1.000000000000e+006 1.000000000000e+006 1.000000000000e+006 1.000000002392e+006 1.000000000000e+006 1.000000000000e+006 1.000000000000e+006 1.000000000000e+006 1.000000000000e+006 1.000000000000e+006 1.000000000000e+006 1.002167776481e+006 1.001538956974e+006 1.002444251131e+006 1.001290689922e+006 1.025285113528e+006 1.027700880523e+006 1.034705869361e+006 1.025320363076e+006 1.034732797369e+006 1.008715819489e+006 1.007867105246e+006 1.045915670135e+006 1.070575294794e+006 1.005312450978e+006 1.000000000000e+006 1.000000000000e+006 1.000000000000e+006 1.003784933016e+006 1.002436598299e+006 1.002815324552e+006 1.003517130642e+006 1.014313702699e+006 1.029010962840e+006 1.057835317421e+006 1.014040219362e+006 1.046602550174e+006 1.032270102464e+006 1.043477057528e+006 1.002172382306e+006 1.002123680576e+006 1.001316262049e+006 1.032773591463e+006 1.023059301792e+006 1.077200928267e+006 1.070620621402e+006 1.076740628429e+006 1.001547579456e+006 1.002199034364e+006 1.002195767002e+006 1.002780172997e+006 1.001674273999e+006 1.003677932152e+006 1.001294555993e+006 1.000789267929e+006 1.001020998235e+006 1.001289542539e+006 1.068669484366e+006 1.013736355003e+006 1.015291790759e+006 1.019778882226e+006 1.001312703857e+006 1.001013351384e+006 1.000766104700e+006 1.000620755168e+006 1.017425912426e+006 1.025179676566e+006 1.000254344520e+006 1.000234200670e+006 1.000378447650e+006 1.002758799330e+006 1.003580263394e+006 1.000131989834e+006 1.000259106180e+006 1.000184163831e+006 1.011496868675e+006 1.005700043054e+006 1.004429097852e+006 1.000068871825e+006 1.000073810700e+006 1.044889957243e+006 1.054531625454e+006 1.002153740559e+006 1.003470395501e+006 1.001822473787e+006 1.002092135139e+006 1.001295170205e+006 1.001244145282e+006 1.005434409336e+006 1.000491149761e+006 1.000622522684e+006 1.000234284685e+006 1.000159888431e+006 1.000122257053e+006 1.000797773642e+006 1.000105059643e+006 1.000166189495e+006 1.000189652713e+006 1.000083274729e+006 1.011961050608e+006 1.013934414421e+006 1.000475744994e+006 1.000697968821e+006 1.006742640241e+006 1.019917568170e+006 1.008745172700e+006 1.009722502062e+006 1.058162084351e+006 1.061029759592e+006 1.027627421102e+006 1.035762561381e+006 1.004361504111e+006 1.005466739800e+006 1.001233583453e+006 1.000906731006e+006 1.000747061606e+006 1.001566079805e+006 1.000999487721e+006 1.000730729595e+006 1.001391043698e+006 1.004601464481e+006 1.004665207468e+006 1.006070786485e+006 1.001682699471e+006 1.008517700510e+006 1.003233949612e+006 1.008077748059e+006 1.006575435899e+006 1.000451171197e+006 1.000271424962e+006 1.000374748874e+006 1.011464114952e+006 1.016247547775e+006 1.006794998817e+006 1.001072506468e+006 1.009538700000e+006 1.000311729467e+006 1.000396816521e+006 1.060600916992e+006 1.070498387278e+006 1.010588746125e+006 1.008059704602e+006 1.010797949858e+006 1.003211465008e+006 1.009263357681e+006 1.001697492414e+006 1.001096274410e+006 1.039075418969e+006 1.018552704231e+006 1.022403671266e+006 1.013489694989e+006 1.002507811875e+006 1.002145889556e+006 1.002413367444e+006 1.003272728787e+006 1.007988609708e+006 1.044230213941e+006 1.032085965570e+006 1.000572029893e+006 1.000734907031e+006 1.000824708187e+006 1.000498644257e+006 1.004680751704e+006 1.000282027502e+006 1.000152089586e+006 1.000184157551e+006 1.005054594849e+006 1.011490702779e+006 1.035412003709e+006 1.001929154228e+006 1.000566749444e+006 1.000460620866e+006 1.000338440704e+006 1.000742479615e+006 1.000748753143e+006 1.036400221512e+006 1.042429891859e+006 1.025765153443e+006 1.000386456101e+006 1.000304243903e+006 1.003065332944e+006 1.004223542144e+006 1.004341820697e+006 1.000446854709e+006 1.000725282310e+006 1.000613987978e+006 1.036572591071e+006 1.057542581004e+006 1.072936401332e+006 1.014244864529e+006 1.015901041454e+006 1.000543936314e+006 1.000979840354e+006 1.006107899365e+006 1.057250524080e+006 1.068365722778e+006 1.001133149942e+006 1.000771901494e+006 1.000896476953e+006 1.026446323988e+006 1.002474832767e+006 1.009953857470e+006 1.000486351327e+006 1.005958740192e+006 1.030874499084e+006 1.024597265646e+006 1.038083688974e+006 1.001613550846e+006 1.000297374599e+006 1.025180312865e+006 1.019652525333e+006 1.001087564356e+006 1.000208648744e+006 1.000328928956e+006 1.022113751956e+006 1.070283871959e+006 1.072190741425e+006 1.000613489257e+006 1.000492350123e+006 1.000361270472e+006 1.000000000000e+006 1.000000000000e+006 1.000000000000e+006 1.001506432849e+006 1.070492438081e+006 1.030212420223e+006 1.027953008009e+006 1.022711620713e+006 1.010385631844e+006 1.001526192436e+006 1.017995216400e+006 1.009897422439e+006 1.007885788524e+006 1.000000000000e+006 1.000000000000e+006 1.070648379637e+006 1.076918936279e+006 1.045600489307e+006 1.007932896192e+006 1.000817341294e+006 1.005664204833e+006 1.001027452274e+006 1.063973829086e+006 1.002747286321e+006 1.048791022710e+006 1.000401152324e+006 1.000435373530e+006 1.002196360362e+006 1.000000000000e+006 1.000000000000e+006 1.013478723947e+006 1.005895954649e+006 1.006766688467e+006 1.004472994028e+006 1.001705985787e+006 1.069142218228e+006 1.000000035857e+006 1.000000032488e+006 1.000000035850e+006 1.000000032491e+006 1.018210400826e+006 1.067040672922e+006 1.001786691406e+006 1.058580295398e+006 1.000000026020e+006 1.000000016636e+006 1.000000008990e+006 1.000000016635e+006 1.000310294162e+006 1.000210710852e+006 1.049807261558e+006 1.000407120039e+006 1.016414910321e+006 1.020373991442e+006 1.012746971182e+006 1.010886231159e+006 1.058662105682e+006 1.060266060478e+006 1.036413869902e+006 1.055391616721e+006 1.000141092480e+006 1.000265580937e+006 1.000000000000e+006 1.000000000000e+006 1.071964862145e+006 1.037990475675e+006 1.014051253909e+006 1.030142713485e+006 1.001210885950e+006 1.071793489924e+006 1.001716488560e+006 1.000000000000e+006 1.000000000000e+006 1.000092347442e+006 1.004161716012e+006 1.000047436299e+006 1.000031563153e+006 1.000022943602e+006 1.000302161722e+006 1.012759097374e+006 1.014876627773e+006 1.000170502782e+006 1.000000000000e+006 1.000000000000e+006 1.000102333974e+006 1.077217468507e+006 1.076536506714e+006 1.000193821466e+006 1.076082918647e+006 1.072447228858e+006 1.076817954841e+006 1.000245100715e+006 1.000000108244e+006 1.000000058518e+006 1.000000055651e+006 1.000000178586e+006 1.000000150228e+006 1.000000058505e+006 1.000000178520e+006 1.000000150157e+006 1.000000267178e+006 1.000000440232e+006 1.000000327497e+006 1.000000439976e+006 1.000000327251e+006 1.000000642176e+006 1.000001031107e+006 1.000000775826e+006 1.000001031919e+006 1.000000776701e+006 1.000001477956e+006 1.000002320699e+006 1.000001768099e+006 1.000002322273e+006 1.000001770808e+006 1.000003269126e+006 1.000005041830e+006 1.000003875106e+006 1.000005035566e+006 1.000003881153e+006 1.000006974867e+006 1.000010703442e+006 1.000008218277e+006 1.000010594481e+006 1.000008205237e+006 1.000000080802e+006 1.000000085406e+006 1.000000189503e+006 1.000000240140e+006 1.000000085387e+006 1.000000080832e+006 1.000000189529e+006 1.000000240034e+006 1.000000463866e+006 1.000000582310e+006 1.000000463911e+006 1.000000582755e+006 1.000001084333e+006 1.000001346318e+006 1.000001084703e+006 1.000001347608e+006 1.000002432214e+006 1.000002992930e+006 1.000002433179e+006 1.000002994239e+006 1.000000921345e+006 1.000001561114e+006 1.000000687454e+006 1.000002066478e+006 1.000000535283e+006 1.000001344830e+006 1.000001568072e+006 1.000000924387e+006 1.000000689884e+006 1.000002074717e+006 1.000000536368e+006 1.000001347432e+006 1.000003431211e+006 1.000004507441e+006 1.000002999441e+006 1.000003451107e+006 1.000004530792e+006 1.000003004354e+006 1.000007260000e+006 1.000009598521e+006 1.000006487747e+006 1.000007314377e+006 1.000009676403e+006 1.000006489867e+006 1.000014851019e+006 1.000020917344e+006 1.000012916165e+006 1.000014964077e+006 1.000020999905e+006 1.000013478858e+006 1.000029354986e+006 1.000042762919e+006 1.000029494206e+006 1.000041250008e+006 1.000005257829e+006 1.000006447266e+006 1.000005255551e+006 1.000006426326e+006 1.000000134969e+006 1.000000035220e+006 1.000000070182e+006 1.000000135098e+006 1.000000035252e+006 1.000000070312e+006 1.000000331020e+006 1.000000206795e+006 1.000000331301e+006 1.000000207220e+006 1.000000788534e+006 1.000000789071e+006 1.000001794073e+006 1.000001794712e+006 1.000003956575e+006 1.000003955365e+006 1.000554763557e+006 1.000945644090e+006 1.000570510054e+006 1.070698458291e+006 1.000008576135e+006 1.000008559602e+006 1.000056276788e+006 1.000056550668e+006 1.000014447567e+006 1.000022761090e+006 1.000017299628e+006 1.000022012014e+006 1.000016853425e+006 1.000011045121e+006 1.000013750623e+006 1.000010990664e+006 1.000013488520e+006 1.000016498157e+006 1.000330057797e+006 1.000017524131e+006 1.000567821055e+006 1.000943662881e+006 1.000080668574e+006 1.000105549653e+006 1.000022791170e+006 1.000037006113e+006 1.000028547036e+006 1.000028270664e+006 1.000029541949e+006 1.000041579107e+006 1.000040256156e+006 1.000045178270e+006 1.000038276981e+006 1.000061999751e+006 1.000052998382e+006 1.000060669439e+006 1.000042343971e+006 1.000061248111e+006 1.000089948802e+006 1.003273375238e+006 1.000438375719e+006 1.000086537432e+006 1.004844361676e+006 1.070519946008e+006 1.000079390518e+006 1.000000000000e+006 1.000000000000e+006 1.000000000000e+006 1.002787371470e+006 1.003617676098e+006 1.004954095984e+006 1.003970309931e+006 1.002919732046e+006 1.018059698891e+006 1.077004122612e+006 1.004757871761e+006 1.076603234309e+006 1.002292376718e+006 1.000189430854e+006 1.000159412592e+006 1.017764118806e+006 1.008006437258e+006 1.000131701840e+006 1.000096360777e+006 1.003300273270e+006 1.000121522027e+006 1.000135008647e+006 1.000649082571e+006 1.000302586102e+006 1.000024937940e+006 1.002839259680e+006 1.000000000000e+006 1.000000000000e+006 1.011596313530e+006 1.000000006807e+006 1.000000006807e+006 1.000060586801e+006 1.007944441047e+006 1.003415991925e+006 1.000056244007e+006 1.005490869570e+006 1.006245336377e+006 1.048014457223e+006 1.000035120730e+006 1.000040135645e+006 1.000036560171e+006 1.001761569465e+006 1.000000000000e+006 1.000000000000e+006 1.001013006407e+006 1.000261133879e+006 1.000000000000e+006 1.076779915113e+006 1.070009981795e+006 1.076957515693e+006 1.000074428927e+006 1.002585019356e+006 1.000000000000e+006 1.012320406318e+006 1.012655941852e+006 1.005775820021e+006 1.000144841147e+006 1.010061585857e+006 1.000000042860e+006 1.000000042953e+006 1.012394634526e+006 1.072453713502e+006 1.000421387882e+006 1.015666147537e+006 1.009990618732e+006 1.073933976631e+006 1.017763325814e+006 1.024984811767e+006 1.004433155603e+006 1.001251181550e+006 1.001536964285e+006 1.007719028340e+006 1.077117316379e+006 1.009110710981e+006 1.077292353587e+006 1.000332428986e+006 1.000258788000e+006 1.017992227494e+006 1.000149583860e+006 1.000000000000e+006 1.000094351087e+006 1.000000000000e+006 1.000060476491e+006 1.006176969779e+006 1.000122606484e+006 1.023297583154e+006 1.000103271474e+006 1.003431016729e+006 1.000022319008e+006 1.009345270898e+006 1.003794848664e+006 1.076789580869e+006 1.076882977172e+006 1.077431827581e+006 1.076334919824e+006 1.000000000000e+006 1.000000000000e+006 1.000000000000e+006 1.000000000000e+006 1.072918922033e+006 1.000000000000e+006 1.000000000000e+006 1.063702026083e+006 1.073282710386e+006 1.076138517001e+006 1.003166583391e+006 1.000000000000e+006 1.005080025427e+006 1.007641879068e+006 1.000000010855e+006 1.000000010867e+006 1.000000112005e+006 1.000000112290e+006 1.077169075398e+006 1.074023858807e+006 1.000000364372e+006 1.000000363339e+006 1.000000282761e+006 1.000000283580e+006 1.073649784949e+006 1.076079766415e+006 
        </DataArray>
        <DataArray type="Float64" Name="MOLAR_FRACTION" format="ascii">