<?xml version="1.0"?>
<VTKFile type="UnstructuredGrid" version="0.1" byte_order="LittleEndian">
  <UnstructuredGrid>
    <Piece NumberOfPoints="963" NumberOfCells="1758">
      <Points>
        <DataArray type="Float64" NumberOfComponents="3" format="ascii">
          1.600262034769e+002 1.257989505921e+001 0.000000000000e+000
          1.635346199106e+002 2.000000000000e+001 0.000000000000e+000
          1.554515002484e+002 2.000000000000e+001 0.000000000000e+000
          3.459306441575e+000 1.667621982453e+001 0.000000000000e+000
          3.062266634850e+000 1.705413688405e+001 0.000000000000e+000
          2.873380769063e+000 1.650527725632e+001 0.000000000000e+000
          1.514088444034e+000 1.865189448105e+001 0.000000000000e+000
          1.967902677551e+000 1.834103489750e+001 0.000000000000e+000
          2.034564522234e+000 1.890806711991e+001 0.000000000000e+000
          2.478275273162e+000 1.702762299110e+001 0.000000000000e+000
          2.952621433467e+000 1.774357373580e+001 0.000000000000e+000
          2.237893542067e+000 1.782457469610e+001 0.000000000000e+000
          3.313583922780e+000 3.274674552047e+000 0.000000000000e+000
          2.561432712787e+000 3.156040447793e+000 0.000000000000e+000
          3.047531989640e+000 2.714594415171e+000 0.000000000000e+000
          2.750804692284e+000 3.936058190693e+000 0.000000000000e+000
          2.599039179818e+000 2.451529939148e+000 0.000000000000e+000
          3.139686649742e+000 2.186924052088e+000 0.000000000000e+000
          1.919984553221e+000 3.358010194268e+000 0.000000000000e+000
          1.960900304591e+000 2.773319745251e+000 0.000000000000e+000
          1.894565400391e+000 1.733316857565e+001 0.000000000000e+000
          0.000000000000e+000 1.538461538461e+001 0.000000000000e+000
          5.816229249735e-001 1.567919247147e+001 0.000000000000e+000
          0.000000000000e+000 1.589743589743e+001 0.000000000000e+000
          9.766405669483e+001 2.000000000000e+001 0.000000000000e+000
          1.010672711393e+002 1.500000000000e+001 0.000000000000e+000
          1.029329279907e+002 2.000000000000e+001 0.000000000000e+000
          9.588503785413e+001 1.500000000000e+001 0.000000000000e+000
          1.039231647117e+002 1.000000000000e+001 0.000000000000e+000
          9.860830811271e+001 1.000000000000e+001 0.000000000000e+000
          1.010672711397e+002 5.000000000000e+000 0.000000000000e+000
          9.766405669557e+001 0.000000000000e+000 0.000000000000e+000
          1.029329279915e+002 0.000000000000e+000 0.000000000000e+000
          9.588503785449e+001 5.000000000000e+000 0.000000000000e+000
          7.892434178002e+001 2.000000000000e+001 0.000000000000e+000
          8.173808356948e+001 1.500000000000e+001 0.000000000000e+000
          8.328058896910e+001 2.000000000000e+001 0.000000000000e+000
          7.679274808893e+001 1.514423393202e+001 0.000000000000e+000
          7.970503892166e+001 1.000000000000e+001 0.000000000000e+000
          8.409930620613e+001 1.000000000000e+001 0.000000000000e+000
          8.173808356980e+001 5.000000000000e+000 0.000000000000e+000
          7.892434178065e+001 0.000000000000e+000 0.000000000000e+000
          8.328058896976e+001 0.000000000000e+000 0.000000000000e+000
          7.679274808925e+001 4.855766067979e+000 0.000000000000e+000
          1.084583939765e+002 2.000000000000e+001 0.000000000000e+000
          1.122011528880e+002 1.500000000000e+001 0.000000000000e+000
          1.142529496098e+002 2.000000000000e+001 0.000000000000e+000
          1.065018792644e+002 1.500000000000e+001 0.000000000000e+000
          1.153419838410e+002 1.000000000000e+001 0.000000000000e+000
          1.094968549120e+002 1.000000000000e+001 0.000000000000e+000
          1.122011528884e+002 5.000000000000e+000 0.000000000000e+000
          1.084583939773e+002 0.000000000000e+000 0.000000000000e+000
          1.142529496106e+002 0.000000000000e+000 0.000000000000e+000
          1.065018792648e+002 5.000000000000e+000 0.000000000000e+000
          1.181779812237e+002 1.500000000000e+001 0.000000000000e+000
          1.203297004775e+002 2.000000000000e+001 0.000000000000e+000
          1.214717707847e+002 1.000000000000e+001 0.000000000000e+000
          1.181779812242e+002 5.000000000000e+000 0.000000000000e+000
          1.203297004784e+002 0.000000000000e+000 0.000000000000e+000
          7.477039199538e+001 2.000000000000e+001 0.000000000000e+000
          7.551483469771e+001 1.000000000000e+001 0.000000000000e+000
          7.296959467356e+001 1.385646386579e+001 0.000000000000e+000
          7.477039199599e+001 0.000000000000e+000 0.000000000000e+000
          7.296959467379e+001 6.143536134207e+000 0.000000000000e+000
          6.918477198508e+001 1.366665532880e+001 0.000000000000e+000
          6.746477463053e+001 1.000000000000e+001 0.000000000000e+000
          7.151921701478e+001 1.000000000000e+001 0.000000000000e+000
          6.918477198529e+001 6.333344671202e+000 0.000000000000e+000
          9.263986346551e+001 2.000000000000e+001 0.000000000000e+000
          9.094345943471e+001 1.500000000000e+001 0.000000000000e+000
          9.354026529380e+001 1.000000000000e+001 0.000000000000e+000
          9.263986346623e+001 0.000000000000e+000 0.000000000000e+000
          9.094345943506e+001 5.000000000000e+000 0.000000000000e+000
          1.244344522558e+002 1.503312574389e+001 0.000000000000e+000
          1.267023895482e+002 2.000000000000e+001 0.000000000000e+000
          1.285510028831e+002 1.020485663255e+001 0.000000000000e+000
          1.244344522563e+002 5.033125743893e+000 0.000000000000e+000
          1.267023895491e+002 0.000000000000e+000 0.000000000000e+000
          8.623136018348e+001 1.500000000000e+001 0.000000000000e+000
          8.784898578901e+001 2.000000000000e+001 0.000000000000e+000
          8.870757443665e+001 1.000000000000e+001 0.000000000000e+000
          8.623136018382e+001 5.000000000000e+000 0.000000000000e+000
          8.784898578969e+001 0.000000000000e+000 0.000000000000e+000
          4.872472752737e+000 0.000000000000e+000 0.000000000000e+000
          4.204479229380e+000 6.412840757122e-001 0.000000000000e+000
          4.157376851380e+000 0.000000000000e+000 0.000000000000e+000
          5.192892237051e+000 7.280355562789e-001 0.000000000000e+000
          1.306630304579e+000 6.212843344151e-001 0.000000000000e+000
          1.050228457081e+000 0.000000000000e+000 0.000000000000e+000
          1.614006202528e+000 0.000000000000e+000 0.000000000000e+000
          1.266763055794e+001 1.554696422866e+001 0.000000000000e+000
          1.263589100638e+001 1.657720348306e+001 0.000000000000e+000
          1.174268578662e+001 1.633018318031e+001 0.000000000000e+000
          6.588835695415e+000 7.505681085529e+000 0.000000000000e+000
          6.456871838389e+000 6.658671683861e+000 0.000000000000e+000
          7.208099140752e+000 7.038822846307e+000 0.000000000000e+000
          4.412623338166e+000 9.138856431549e+000 0.000000000000e+000
          4.024185797397e+000 8.708923235630e+000 0.000000000000e+000
          4.601447447338e+000 8.507292699647e+000 0.000000000000e+000
          5.325995059827e-001 6.308307298123e+000 0.000000000000e+000
          0.000000000000e+000 6.666666666655e+000 0.000000000000e+000
          0.000000000000e+000 6.153846153835e+000 0.000000000000e+000
          3.986461521768e+000 8.146114708182e+000 0.000000000000e+000
          2.411603373059e+000 6.510912162016e+000 0.000000000000e+000
          1.807525763324e+000 6.938080373464e+000 0.000000000000e+000
          1.686779352680e+000 6.178928843543e+000 0.000000000000e+000
          2.510760620997e+000 7.229076682239e+000 0.000000000000e+000
          3.166991983438e+000 6.906135870389e+000 0.000000000000e+000
          3.452788915829e+000 6.276851216781e+000 0.000000000000e+000
          3.340122000742e+000 5.656365440432e+000 0.000000000000e+000
          4.047936562877e+000 5.873561587395e+000 0.000000000000e+000
          1.802463974828e+000 1.292744708026e+001 0.000000000000e+000
          1.383967161336e+000 1.330299552906e+001 0.000000000000e+000
          1.329690820161e+000 1.266495373033e+001 0.000000000000e+000
          2.267922292389e+000 1.431116835808e+001 0.000000000000e+000
          2.854613987538e+000 1.466581611369e+001 0.000000000000e+000
          2.339869278674e+000 1.493776402241e+001 0.000000000000e+000
          4.690956878046e+000 3.115726773737e+000 0.000000000000e+000
          4.014773718330e+000 2.850429494150e+000 0.000000000000e+000
          4.643493383296e+000 2.293565471327e+000 0.000000000000e+000
          5.186083944243e+000 1.661927139510e+000 0.000000000000e+000
          5.452965511439e+000 2.679881546544e+000 0.000000000000e+000
          5.360460104304e+000 3.539902157655e+000 0.000000000000e+000
          6.197986304192e+000 3.115706366113e+000 0.000000000000e+000
          7.929356606585e-001 1.634705420870e+001 0.000000000000e+000
          1.222819867503e+000 1.599517159419e+001 0.000000000000e+000
          1.215723647926e+000 1.546209040954e+001 0.000000000000e+000
          1.770601276021e+000 1.521217632514e+001 0.000000000000e+000
          1.242830150061e+000 1.493919370237e+001 0.000000000000e+000
          1.166444124506e+000 4.610115997312e+000 0.000000000000e+000
          1.851620547934e+000 4.486892013458e+000 0.000000000000e+000
          1.494152702314e+000 5.145235789232e+000 0.000000000000e+000
          1.353088107040e+000 4.090803091641e+000 0.000000000000e+000
          3.802567455935e+000 5.084697985980e+000 0.000000000000e+000
          1.014840185783e+000 5.494768572296e+000 0.000000000000e+000
          8.831064584820e-001 5.109311190608e+000 0.000000000000e+000
          1.727903958959e+000 1.618384478933e+001 0.000000000000e+000
          1.343261525342e+000 1.651800241408e+001 0.000000000000e+000
          3.308120627291e+000 8.593311644828e+000 0.000000000000e+000
[...]
      <PointData Scalars="LIQUID_PRESSURE">
        <DataArray type="Float64" Name="LIQUID_PRESSURE" format="ascii">
          1.000000000000e+006 1.000000000000e+006 1.000000000000e+006 1.185882635334e+006 1.188943108352e+006 1.190308990255e+006 1.199566617920e+006 1.196319238821e+006 1.195868587320e+006 1.192938195232e+006 1.189768106561e+006 1.194516179127e+006 1.187098106766e+006 1.192414024794e+006 1.189055380936e+006 1.191170487588e+006 1.192141262483e+006 1.188392251927e+006 1.196650716867e+006 1.196356483125e+006 1.196818821173e+006 1.195520869863e+006 1.202437843238e+006 1.195527957284e+006 1.000000000000e+006 1.000000000000e+006 1.000000000000e+006 1.000000000000e+006 1.000000000000e+006 1.000000000000e+006 1.000000000000e+006 1.000000000000e+006 1.000000000000e+006 1.000000000000e+006 1.000000000160e+006 1.000000000039e+006 1.000000000023e+006 1.000000000389e+006 1.000000000098e+006 1.000000000013e+006 1.000000000039e+006 1.000000000160e+006 1.000000000023e+006 1.000000000389e+006 1.000000000000e+006 1.000000000000e+006 1.000000000000e+006 1.000000000000e+006 1.000000000000e+006 1.000000000000e+006 1.000000000000e+006 1.000000000000e+006 1.000000000000e+006 1.000000000000e+006 1.000000000000e+006 1.000000000000e+006 1.000000000000e+006 1.000000000000e+006 1.000000000000e+006 1.000000000982e+006 1.000000000671e+006 1.000000002042e+006 1.000000000982e+006 1.000000002042e+006 1.000000010179e+006 1.000000020034e+006 1.000000003706e+006 1.000000010178e+006 1.000000000000e+006 1.000000000000e+006 1.000000000000e+006 1.000000000000e+006 1.000000000000e+006 1.000000000000e+006 1.000000000000e+006 1.000000000000e+006 1.000000000000e+006 1.000000000000e+006 1.000000000005e+006 1.000000000003e+006 1.000000000001e+006 1.000000000005e+006 1.000000000003e+006 1.171779523668e+006 1.179088349541e+006 1.179438885268e+006 1.168073977680e+006 1.201075501040e+006 1.202583753788e+006 1.198843609798e+006 1.072585546418e+006 1.072962165307e+006 1.082663437692e+006 1.150188180679e+006 1.151967965932e+006 1.141791893328e+006 1.176860211630e+006 1.180791546693e+006 1.174845324940e+006 1.201900776236e+006 1.195544515756e+006 1.195472823374e+006 1.181203738500e+006 1.193363546878e+006 1.197478251826e+006 1.198346477210e+006 1.192727196054e+006 1.188213051701e+006 1.185905588516e+006 1.186865294689e+006 1.180612799578e+006 1.197477953575e+006 1.200483231644e+006 1.200837022525e+006 1.194308417662e+006 1.190431667277e+006 1.193842863452e+006 1.173847539541e+006 1.180901248851e+006 1.174369453395e+006 1.168140437215e+006 1.164887220754e+006 1.166016382283e+006 1.155384852855e+006 1.202991326062e+006 1.201658383029e+006 1.201651931143e+006 1.197700068092e+006 1.201361130128e+006 1.201822363753e+006 1.197129145063e+006 1.199718671411e+006 1.200661229477e+006 1.182890484840e+006 1.202545347935e+006 1.203097368656e+006 1.198021523123e+006 1.200744046267e+006 1.187098922629e+006 1.191634109793e+006 1.188459593341e+006 1.202869172973e+006 1.202982506150e+006 1.201079756799e+006 1.203148583001e+006 1.202707645879e+006 1.200254820325e+006 1.189957523757e+006 1.202998330575e+006 1.190090079042e+006 1.192324850288e+006 1.199834764927e+006 1.195535455564e+006 1.201157235282e+006 1.198210373768e+006 1.195122848469e+006 1.180476497391e+006 1.171773191802e+006 1.168390638031e+006 1.162775500309e+006 1.157997703950e+006 1.199948954153e+006 1.200215678725e+006 1.202729258285e+006 1.203136889524e+006 1.198063700799e+006 1.195508204712e+006 1.200055497788e+006 1.195563056274e+006 1.194102409502e+006 1.182986223592e+006 1.179097255073e+006 1.199966735486e+006 1.202250930167e+006 1.191727010468e+006 1.188282957610e+006 1.191019830548e+006 1.200377258046e+006 1.195459783507e+006 1.202572745864e+006 1.197027629585e+006 1.197369470082e+006 1.189397575719e+006 1.193018245463e+006 1.203053120119e+006 1.202765040440e+006 1.188213488877e+006 1.185259076476e+006 1.197753007719e+006 1.194368049005e+006 1.156430833791e+006 1.146206149235e+006 1.194632757360e+006 1.194234089509e+006 1.203042323364e+006 1.194285692774e+006 1.199708709527e+006 1.192515543574e+006 1.184961724168e+006 1.185125449963e+006 1.179372439787e+006 1.196218786805e+006 1.198218097640e+006 1.201527894502e+006 1.202831306670e+006 1.201537584502e+006 1.199129325385e+006 1.187718590103e+006 1.188484450104e+006 1.200236893089e+006 1.202341657745e+006 1.199176858138e+006 1.195477264673e+006 1.000000047701e+006 1.000000047699e+006 1.191701676941e+006 1.194487838379e+006 1.203109021335e+006 1.127632289563e+006 1.135707647085e+006 1.121312315577e+006 1.183562784047e+006 1.177007190359e+006 1.202599379831e+006 1.199746112858e+006 1.202784639265e+006 1.197216003321e+006 1.192803790962e+006 1.202812854568e+006 1.196455789947e+006 1.202192053331e+006 1.201856235109e+006 1.191501161328e+006 1.185314508106e+006 1.202541155437e+006 1.184126251820e+006 1.197168873662e+006 1.197571900627e+006 1.186769864640e+006 1.194529995606e+006 1.199019481833e+006 1.202258616742e+006 1.202019844325e+006 1.195551021628e+006 1.195569386612e+006 1.195463523760e+006 1.195540294807e+006 1.201159294815e+006 1.195668989233e+006 1.201026737253e+006 1.202650075183e+006 1.202657545235e+006 1.195765937263e+006 1.199188885825e+006 1.195587711661e+006 1.195554255473e+006 1.201356475730e+006 1.195489341167e+006 1.201678476386e+006 1.195490685520e+006 1.200387887692e+006 1.195512376473e+006 1.195515258859e+006 1.000000390597e+006 1.000000124761e+006 1.000000107668e+006 1.000000616209e+006 1.000000101603e+006 1.000000370839e+006 1.000000124748e+006 1.000000390556e+006 1.000000107656e+006 1.000000616149e+006 1.000000101595e+006 1.000000370811e+006 1.000003686264e+006 1.000001944428e+006 1.000001249860e+006 1.000005520443e+006 1.000001191374e+006 1.000003527281e+006 1.000001944249e+006 1.000003685912e+006 1.000001249733e+006 1.000005519968e+006 1.000001191288e+006 1.000003527041e+006 1.000803779543e+006 1.000570680364e+006 1.000450653314e+006 1.000996699338e+006 1.000438830883e+006 1.000784797397e+006 1.000570651857e+006 1.000803738200e+006 1.000450627729e+006 1.000996654627e+006 1.000438813673e+006 1.000784770185e+006 1.000239284905e+006 1.000158813306e+006 1.000119707234e+006 1.000309854057e+006 1.000115963182e+006 1.000232408332e+006 1.000158803569e+006 1.000239269912e+006 1.000119698978e+006 1.000309836875e+006 1.000115957542e+006 1.000232398138e+006 1.003444656438e+006 1.002756589571e+006 1.002217042779e+006 1.004120330859e+006 1.002756482950e+006 1.003444518563e+006 1.002216948377e+006 1.004120184173e+006 1.000056119504e+006 1.000034367217e+006 1.000024512428e+006 1.000076446154e+006 1.000023610312e+006 1.000054214323e+006 1.000034364684e+006 1.000056115263e+006 1.000024510410e+006 1.000076440999e+006 1.000023608933e+006 1.000054211422e+006 1.000009913293e+006 1.000014342948e+006 1.000009518194e+006 1.000009912411e+006 1.000014341800e+006 1.000009517592e+006 1.001364803746e+006 1.001812724555e+006 1.001336438425e+006 1.001364739888e+006 1.001812653358e+006 1.001336398127e+006 1.002191147408e+006 1.002191091353e+006 1.000006578784e+006 1.000012247095e+006 1.000004646382e+006 1.000016835565e+006 1.000006578553e+006 1.000016835017e+006 1.000345774282e+006 1.000513278218e+006 1.000276445364e+006 1.000630384177e+006 1.000345766738e+006 1.000630372093e+006 1.000002355479e+006 1.000001609445e+006 1.000002355390e+006 1.003031551274e+006 1.003422370122e+006 1.003422441253e+006 1.003031589039e+006 1.000029724433e+006 1.000039775307e+006 1.000039774119e+006 1.000179222456e+006 1.000140392312e+006 1.000179218070e+006 1.000087324702e+006 1.000066884673e+006 1.000087322330e+006 1.001808394889e+006 1.001808422064e+006 1.000902695263e+006 1.001091410074e+006 1.001091392097e+006 1.000000762236e+006 1.000000501229e+006 1.000000762205e+006 1.001611470381e+006 1.000000197497e+006 1.000000085361e+006 1.000000197489e+006 1.000000021232e+006 1.000000032519e+006 1.000000021235e+006 1.000000032522e+006 1.138334752103e+006 1.129521846236e+006 1.141434934028e+006 1.125156786267e+006 1.190663388282e+006 1.191830534250e+006 1.194736114650e+006 1.190637409419e+006 1.194741909725e+006 1.172061462899e+006 1.169885079788e+006 1.198863441048e+006 1.201812104636e+006 1.160720306728e+006 1.000000000000e+006 1.000000000000e+006 1.000000000000e+006 1.152599406401e+006 1.141438750234e+006 1.145178630599e+006 1.150769283391e+006 1.181762828869e+006 1.192445630233e+006 1.202283705119e+006 1.181504124884e+006 1.199062056532e+006 1.193777704614e+006 1.197959273535e+006 1.138405140872e+006 1.137815258480e+006 1.125814783479e+006 1.193977367648e+006 1.189442818743e+006 1.195587969977e+006 1.201657184597e+006 1.195448634598e+006 1.129508414688e+006 1.138875725322e+006 1.138900100290e+006 1.144799849055e+006 1.131791792560e+006 1.151919523384e+006 1.125165617741e+006 1.112521880064e+006 1.119072625848e+006 1.125151656447e+006 1.202560284715e+006 1.181153552210e+006 1.183018112011e+006 1.187091607072e+006 1.125492330203e+006 1.118895831891e+006 1.111841365212e+006 1.106611402784e+006 1.185207024025e+006 1.190566134211e+006 1.086277429998e+006 1.084058997612e+006 1.094880046317e+006 1.144586507882e+006 1.151211159351e+006 1.072815520781e+006 1.086542590393e+006 1.079201147684e+006 1.177692330507e+006 1.162448947229e+006 1.156428043572e+006 1.060752267202e+006 1.061952163679e+006 1.198450484135e+006 1.201543479639e+006 1.138238827780e+006 1.150387223662e+006 1.133813881966e+006 1.137496731290e+006 1.125255402472e+006 1.124110879469e+006 1.161348083120e+006 1.100973005808e+006 1.106700118139e+006 1.084191971615e+006 1.076274122389e+006 1.071170406518e+006 1.112843068385e+006 1.068249995552e+006 1.077064646403e+006 1.079813818893e+006 1.064194604738e+006 1.178534896926e+006 1.181361997899e+006 1.100382388311e+006 1.109838605414e+006 1.166362115255e+006 1.187248673400e+006 1.172090025398e+006 1.174362195095e+006 1.202491450077e+006 1.202940579640e+006 1.191747145593e+006 1.195127760928e+006 1.156053889814e+006 1.161506516453e+006 1.123775476832e+006 1.116104238850e+006 1.111210162417e+006 1.130170105072e+006 1.118467031570e+006 1.110955400292e+006 1.127244310705e+006 1.157274947298e+006 1.157623691442e+006 1.163950940808e+006 1.131900075214e+006 1.171576347760e+006 1.148553056167e+006 1.170383940438e+006 1.165794494835e+006 1.099051529782e+006 1.087507647881e+006 1.094793129970e+006 1.177675459731e+006 1.184014073315e+006 1.166546162516e+006 1.120277802092e+006 1.173944730585e+006 1.090570038765e+006 1.096111836848e+006 1.202733497586e+006 1.201698433479e+006 1.175974316061e+006 1.170244146150e+006 1.176384560317e+006 1.148454353403e+006 1.173564757631e+006 1.132051258722e+006 1.120856455713e+006 1.196372690672e+006 1.186157305425e+006 1.188938991583e+006 1.180743831319e+006 1.142179291654e+006 1.138117251131e+006 1.141342022165e+006 1.148965519184e+006 1.170167455784e+006 1.198215493729e+006 1.193687445284e+006 1.104577698182e+006 1.110902060801e+006 1.113655830582e+006 1.101425754781e+006 1.157794562406e+006 1.088347108823e+006 1.075361619322e+006 1.079280440107e+006 1.159781887616e+006 1.177693882512e+006 1.194995607584e+006 1.135705565710e+006 1.104425430960e+006 1.099492546465e+006 1.092347882964e+006 1.111213082570e+006 1.111134903148e+006 1.195363770198e+006 1.197579358912e+006 1.190893305586e+006 1.095334904721e+006 1.089824473362e+006 1.147145052230e+006 1.155190133119e+006 1.155930494206e+006 1.098771493714e+006 1.110408087018e+006 1.106510820160e+006 1.195444227294e+006 1.202424052669e+006 1.200223113976e+006 1.181729980663e+006 1.183637345784e+006 1.103484711622e+006 1.118005174588e+006 1.164351964513e+006 1.202294152233e+006 1.202643791866e+006 1.121758081996e+006 1.112188085473e+006 1.115627901707e+006 1.191184873366e+006 1.141845080897e+006 1.174821433857e+006 1.100764776932e+006 1.163634645407e+006 1.193160893820e+006 1.190227244682e+006 1.196011079533e+006 1.130815363818e+006 1.089421084039e+006 1.190490241001e+006 1.187000095156e+006 1.120518967832e+006 1.081704247487e+006 1.091756662733e+006 1.188737608108e+006 1.201861341909e+006 1.200534774807e+006 1.106413125862e+006 1.101082486504e+006 1.093876317681e+006 1.000000000000e+006 1.000000000000e+006 1.000000000000e+006 1.128944287157e+006 1.201427392628e+006 1.192919029133e+006 1.191932167802e+006 1.189135210471e+006 1.175728019368e+006 1.129305434236e+006 1.185687185679e+006 1.174615672060e+006 1.169927944502e+006 1.000000006941e+006 1.000000006942e+006 1.201605279656e+006 1.195534937525e+006 1.198787751599e+006 1.170030767709e+006 1.113528683267e+006 1.162322404577e+006 1.119375666264e+006 1.203047163900e+006 1.144727848947e+006 1.199776731954e+006 1.096296450890e+006 1.098359499790e+006 1.138823064438e+006 1.000000000000e+006 1.000000000000e+006 1.180754633281e+006 1.163284490595e+006 1.166487161310e+006 1.156731171720e+006 1.132331906267e+006 1.202361026596e+006 1.004794862125e+006 1.004630192842e+006 1.004794802035e+006 1.004630164470e+006 1.185906506985e+006 1.202966230169e+006 1.133279396490e+006 1.202685876980e+006 1.004221321468e+006 1.003588685162e+006 1.002787188463e+006 1.003588699462e+006 1.090241864554e+006 1.081939058020e+006 1.200085851196e+006 1.096701118749e+006 1.184140839435e+006 1.187719929392e+006 1.179724194817e+006 1.176592593267e+006 1.202355328668e+006 1.202943273190e+006 1.195384525494e+006 1.201743312606e+006 1.073874626596e+006 1.087105868144e+006 1.000000000000e+006 1.000000000000e+006 1.200778684292e+006 1.195959067663e+006 1.181472991114e+006 1.192879938260e+006 1.123361320732e+006 1.200911859137e+006 1.132531317633e+006 1.000000004998e+006 1.000000004998e+006 1.066070794368e+006 1.154844169029e+006 1.054909544374e+006 1.048714202570e+006 1.044370955921e+006 1.090049529123e+006 1.179788957367e+006 1.182571310689e+006 1.077642433687e+006 1.000000000000e+006 1.000000000000e+006 1.067705402981e+006 1.195576097147e+006 1.195605529054e+006 1.080374777312e+006 1.195540768339e+006 1.200633240332e+006 1.195487807260e+006 1.085198301357e+006 1.007337600446e+006 1.005883168948e+006 1.005661169951e+006 1.008878468660e+006 1.008274335977e+006 1.005883172421e+006 1.008878442299e+006 1.008274307792e+006 1.010272634745e+006 1.012275546665e+006 1.011030151694e+006 1.012275524582e+006 1.011030024672e+006 1.014022790658e+006 1.016512529562e+006 1.014962578376e+006 1.016512108755e+006 1.014962828596e+006 1.018656851082e+006 1.021684517382e+006 1.019801640977e+006 1.021680599517e+006 1.019801478081e+006 1.024253273235e+006 1.027885208174e+006 1.025623348030e+006 1.027860679926e+006 1.025617575381e+006 1.030882240852e+006 1.035279741719e+006 1.032531817316e+006 1.035158193133e+006 1.032480587512e+006 1.006511937492e+006 1.006744097725e+006 1.009032634070e+006 1.009871574825e+006 1.006744116880e+006 1.006512013353e+006 1.009032668555e+006 1.009871535840e+006 1.012463932518e+006 1.013529212899e+006 1.012464006966e+006 1.013529275701e+006 1.016745886480e+006 1.018056142691e+006 1.016746155121e+006 1.018055451325e+006 1.021959385385e+006 1.023546853676e+006 1.021959618551e+006 1.023539869204e+006 1.015837293870e+006 1.018936376996e+006 1.014272638379e+006 1.020817837376e+006 1.013127800299e+006 1.018022072647e+006 1.018937979001e+006 1.015838125650e+006 1.014273456553e+006 1.020819299463e+006 1.013128178727e+006 1.018022447930e+006 1.024575119686e+006 1.026863165776e+006 1.023510524032e+006 1.024578670213e+006 1.026866159867e+006 1.023510356262e+006 1.031230385709e+006 1.034121862825e+006 1.030094285995e+006 1.031238563328e+006 1.034131477455e+006 1.030089973434e+006 1.038938140449e+006 1.043260804103e+006 1.037242956111e+006 1.038950230773e+006 1.043189820487e+006 1.037697577164e+006 1.047698387175e+006 1.053201199983e+006 1.047704993471e+006 1.052615791065e+006 1.028184702072e+006 1.030119584652e+006 1.028181915052e+006 1.030074535021e+006 1.007980447803e+006 1.004848391053e+006 1.006247444702e+006 1.007980591738e+006 1.004848506192e+006 1.006247653670e+006 1.011047557605e+006 1.009363636864e+006 1.011047687382e+006 1.009363939665e+006 1.014998204054e+006 1.014998253921e+006 1.019848569723e+006 1.019848386182e+006 1.025725343267e+006 1.025724546554e+006 1.104299332446e+006 1.117116216848e+006 1.104505679104e+006 1.201447550594e+006 1.032850826099e+006 1.032847868992e+006 1.057491755944e+006 1.057495159386e+006 1.038640423854e+006 1.044224467409e+006 1.040893993232e+006 1.043824004920e+006 1.040505131609e+006 1.035543282321e+006 1.038063931176e+006 1.035515353937e+006 1.037825231849e+006 1.040141777618e+006 1.091944875669e+006 1.040910952540e+006 1.104494628335e+006 1.117111479488e+006 1.063584886417e+006 1.068252342439e+006 1.044167212003e+006 1.051113872720e+006 1.047316621826e+006 1.047102216345e+006 1.047809666369e+006 1.052590880365e+006 1.052438344404e+006 1.054010296196e+006 1.051523716316e+006 1.059027419790e+006 1.056340272962e+006 1.058772796043e+006 1.052837229309e+006 1.058954884322e+006 1.065510956742e+006 1.149054371992e+006 1.098420820023e+006 1.064767029462e+006 1.158705468167e+006 1.201738879570e+006 1.063151248654e+006 1.000000000000e+006 1.000000000000e+006 1.000000000000e+006 1.144912538935e+006 1.151643959463e+006 1.159197043963e+006 1.153799868460e+006 1.146175286361e+006 1.185746591238e+006 1.195543622735e+006 1.158272221140e+006 1.195614608450e+006 1.139854169461e+006 1.079782568479e+006 1.076274797926e+006 1.185499200577e+006 1.170117452536e+006 1.072613430195e+006 1.066790351662e+006 1.149111756937e+006 1.070723846600e+006 1.073007834858e+006 1.107616832692e+006 1.089772489848e+006 1.045282610749e+006 1.145305286777e+006 1.000000002095e+006 1.000000002095e+006 1.177938660283e+006 1.002473016529e+006 1.002473000869e+006 1.058393123685e+006 1.170188357077e+006 1.149979772968e+006 1.057339451902e+006 1.161671525293e+006 1.164690374441e+006 1.199523024136e+006 1.050052294361e+006 1.052013680697e+006 1.050779674306e+006 1.133233695074e+006 1.000000000000e+006 1.000000000000e+006 1.119003053991e+006 1.086795415114e+006 1.000000000000e+006 1.195395857169e+006 1.202063986576e+006 1.195572927586e+006 1.062176213694e+006 1.142951487032e+006 1.000000000000e+006 1.179244882335e+006 1.179452159648e+006 1.162773991283e+006 1.074305398206e+006 1.175082189225e+006 1.005155414198e+006 1.005155616296e+006 1.179285979077e+006 1.200510783416e+006 1.097451295693e+006 1.183415089740e+006 1.174764136422e+006 1.198874607487e+006 1.185465752775e+006 1.190361924513e+006 1.156550335228e+006 1.124075494837e+006 1.129524699199e+006 1.169591575266e+006 1.195610027892e+006 1.173085165717e+006 1.195626459815e+006 1.091953581834e+006 1.086269310328e+006 1.185780348469e+006 1.074867862305e+006 1.000000000000e+006 1.066216926838e+006 1.000000000000e+006 1.058543136390e+006 1.164249008677e+006 1.071140884918e+006 1.189520593986e+006 1.067651474409e+006 1.150016539793e+006 1.043831489515e+006 1.173369423510e+006 1.152592720944e+006 1.195412716720e+006 1.195512713025e+006 1.195623479911e+006 1.195603396859e+006 1.000000000000e+006 1.000000000000e+006 1.000000000000e+006 1.000000000000e+006 1.200081602845e+006 1.000000000000e+006 1.000000000000e+006 1.202925539546e+006 1.199728965207e+006 1.195961160578e+006 1.147951099268e+006 1.000000000000e+006 1.159817498209e+006 1.169053811957e+006 1.003019431796e+006 1.003019526097e+006 1.007452622008e+006 1.007452925916e+006 1.195579835228e+006 1.198908960580e+006 1.011431544980e+006 1.011431046642e+006 1.010457803520e+006 1.010458274430e+006 1.199643335040e+006 1.195964950819e+006 
        </DataArray>
        <DataArray type="Float64" Name="MOLAR_FRACTION" format="ascii">