<?xml version="1.0"?>
<VTKFile type="UnstructuredGrid" version="0.1" byte_order="LittleEndian">
  <UnstructuredGrid>
    <Piece NumberOfPoints="963" NumberOfCells="1758">
      <Points>
        <DataArray type="Float64" NumberOfComponents="3" format="ascii">
          1.600262034769e+002 1.257989505921e+001 0.000000000000e+000
          1.635346199106e+002 2.000000000000e+001 0.000000000000e+000
          1.554515002484e+002 2.000000000000e+001 0.000000000000e+000
          3.459306441575e+000 1.667621982453e+001 0.000000000000e+000
          3.062266634850e+000 1.705413688405e+001 0.000000000000e+000
          2.873380769063e+000 1.650527725632e+001 0.000000000000e+000
          1.514088444034e+000 1.865189448105e+001 0.000000000000e+000
          1.967902677551e+000 1.834103489750e+001 0.000000000000e+000
          2.034564522234e+000 1.890806711991e+001 0.000000000000e+000
          2.478275273162e+000 1.702762299110e+001 0.000000000000e+000
          2.952621433467e+000 1.774357373580e+001 0.000000000000e+000
          2.237893542067e+000 1.782457469610e+001 0.000000000000e+000
          3.313583922780e+000 3.274674552047e+000 0.000000000000e+000
          2.561432712787e+000 3.156040447793e+000 0.000000000000e+000
          3.047531989640e+000 2.714594415171e+000 0.000000000000e+000
          2.750804692284e+000 3.936058190693e+000 0.000000000000e+000
          2.599039179818e+000 2.451529939148e+000 0.000000000000e+000
          3.139686649742e+000 2.186924052088e+000 0.000000000000e+000
          1.919984553221e+000 3.358010194268e+000 0.000000000000e+000
          1.960900304591e+000 2.773319745251e+000 0.000000000000e+000
          1.894565400391e+000 1.733316857565e+001 0.000000000000e+000
          0.000000000000e+000 1.538461538461e+001 0.000000000000e+000
          5.816229249735e-001 1.567919247147e+001 0.000000000000e+000
          0.000000000000e+000 1.589743589743e+001 0.000000000000e+000
          9.766405669483e+001 2.000000000000e+001 0.000000000000e+000
          1.010672711393e+002 1.500000000000e+001 0.000000000000e+000
          1.029329279907e+002 2.000000000000e+001 0.000000000000e+000
          9.588503785413e+001 1.500000000000e+001 0.000000000000e+000
          1.039231647117e+002 1.000000000000e+001 0.000000000000e+000
          9.860830811271e+001 1.000000000000e+001 0.000000000000e+000
          1.010672711397e+002 5.000000000000e+000 0.000000000000e+000
          9.766405669557e+001 0.000000000000e+000 0.000000000000e+000
          1.029329279915e+002 0.000000000000e+000 0.000000000000e+000
          9.588503785449e+001 5.000000000000e+000 0.000000000000e+000
          7.892434178002e+001 2.000000000000e+001 0.000000000000e+000
          8.173808356948e+001 1.500000000000e+001 0.000000000000e+000
          8.328058896910e+001 2.000000000000e+001 0.000000000000e+000
          7.679274808893e+001 1.514423393202e+001 0.000000000000e+000
          7.970503892166e+001 1.000000000000e+001 0.000000000000e+000
          8.409930620613e+001 1.000000000000e+001 0.000000000000e+000
          8.173808356980e+001 5.000000000000e+000 0.000000000000e+000
          7.892434178065e+001 0.000000000000e+000 0.000000000000e+000
          8.328058896976e+001 0.000000000000e+000 0.000000000000e+000
          7.679274808925e+001 4.855766067979e+000 0.000000000000e+000
          1.084583939765e+002 2.000000000000e+001 0.000000000000e+000
          1.122011528880e+002 1.500000000000e+001 0.000000000000e+000
          1.142529496098e+002 2.000000000000e+001 0.000000000000e+000
          1.065018792644e+002 1.500000000000e+001 0.000000000000e+000
          1.153419838410e+002 1.000000000000e+001 0.000000000000e+000
          1.094968549120e+002 1.000000000000e+001 0.000000000000e+000
          1.122011528884e+002 5.000000000000e+000 0.000000000000e+000
          1.084583939773e+002 0.000000000000e+000 0.000000000000e+000
          1.142529496106e+002 0.000000000000e+000 0.000000000000e+000
          1.065018792648e+002 5.000000000000e+000 0.000000000000e+000
          1.181779812237e+002 1.500000000000e+001 0.000000000000e+000
          1.203297004775e+002 2.000000000000e+001 0.000000000000e+000
          1.214717707847e+002 1.000000000000e+001 0.000000000000e+000
          1.181779812242e+002 5.000000000000e+000 0.000000000000e+000
          1.203297004784e+002 0.000000000000e+000 0.000000000000e+000
          7.477039199538e+001 2.000000000000e+001 0.000000000000e+000
          7.551483469771e+001 1.000000000000e+001 0.000000000000e+000
          7.296959467356e+001 1.385646386579e+001 0.000000000000e+000
          7.477039199599e+001 0.000000000000e+000 0.000000000000e+000
          7.296959467379e+001 6.143536134207e+000 0.000000000000e+000
          6.918477198508e+001 1.366665532880e+001 0.000000000000e+000
          6.746477463053e+001 1.000000000000e+001 0.000000000000e+000
          7.151921701478e+001 1.000000000000e+001 0.000000000000e+000
          6.918477198529e+001 6.333344671202e+000 0.000000000000e+000
          9.263986346551e+001 2.000000000000e+001 0.000000000000e+000
          9.094345943471e+001 1.500000000000e+001 0.000000000000e+000
          9.354026529380e+001 1.000000000000e+001 0.000000000000e+000
          9.263986346623e+001 0.000000000000e+000 0.000000000000e+000
          9.094345943506e+001 5.000000000000e+000 0.000000000000e+000
          1.244344522558e+002 1.503312574389e+001 0.000000000000e+000
          1.267023895482e+002 2.000000000000e+001 0.000000000000e+000
          1.285510028831e+002 1.020485663255e+001 0.000000000000e+000
          1.244344522563e+002 5.033125743893e+000 0.000000000000e+000
          1.267023895491e+002 0.000000000000e+000 0.000000000000e+000
          8.623136018348e+001 1.500000000000e+001 0.000000000000e+000
          8.784898578901e+001 2.000000000000e+001 0.000000000000e+000
          8.870757443665e+001 1.000000000000e+001 0.000000000000e+000
          8.623136018382e+001 5.000000000000e+000 0.000000000000e+000
          8.784898578969e+001 0.000000000000e+000 0.000000000000e+000
          4.872472752737e+000 0.000000000000e+000 0.000000000000e+000
          4.204479229380e+000 6.412840757122e-001 0.000000000000e+000
          4.157376851380e+000 0.000000000000e+000 0.000000000000e+000
          5.192892237051e+000 7.280355562789e-001 0.000000000000e+000
          1.306630304579e+000 6.212843344151e-001 0.000000000000e+000
          1.050228457081e+000 0.000000000000e+000 0.000000000000e+000
          1.614006202528e+000 0.000000000000e+000 0.000000000000e+000
          1.266763055794e+001 1.554696422866e+001 0.000000000000e+000
          1.263589100638e+001 1.657720348306e+001 0.000000000000e+000
          1.174268578662e+001 1.633018318031e+001 0.000000000000e+000
          6.588835695415e+000 7.505681085529e+000 0.000000000000e+000
          6.456871838389e+000 6.658671683861e+000 0.000000000000e+000
          7.208099140752e+000 7.038822846307e+000 0.000000000000e+000
          4.412623338166e+000 9.138856431549e+000 0.000000000000e+000
          4.024185797397e+000 8.708923235630e+000 0.000000000000e+000
          4.601447447338e+000 8.507292699647e+000 0.000000000000e+000
          5.325995059827e-001 6.308307298123e+000 0.000000000000e+000
          0.000000000000e+000 6.666666666655e+000 0.000000000000e+000
          0.000000000000e+000 6.153846153835e+000 0.000000000000e+000
          3.986461521768e+000 8.146114708182e+000 0.000000000000e+000
          2.411603373059e+000 6.510912162016e+000 0.000000000000e+000
          1.807525763324e+000 6.938080373464e+000 0.000000000000e+000
          1.686779352680e+000 6.178928843543e+000 0.000000000000e+000
          2.510760620997e+000 7.229076682239e+000 0.000000000000e+000
          3.166991983438e+000 6.906135870389e+000 0.000000000000e+000
          3.452788915829e+000 6.276851216781e+000 0.000000000000e+000
          3.340122000742e+000 5.656365440432e+000 0.000000000000e+000
          4.047936562877e+000 5.873561587395e+000 0.000000000000e+000
          1.802463974828e+000 1.292744708026e+001 0.000000000000e+000
          1.383967161336e+000 1.330299552906e+001 0.000000000000e+000
          1.329690820161e+000 1.266495373033e+001 0.000000000000e+000
          2.267922292389e+000 1.431116835808e+001 0.000000000000e+000
          2.854613987538e+000 1.466581611369e+001 0.000000000000e+000
          2.339869278674e+000 1.493776402241e+001 0.000000000000e+000
          4.690956878046e+000 3.115726773737e+000 0.000000000000e+000
          4.014773718330e+000 2.850429494150e+000 0.000000000000e+000
          4.643493383296e+000 2.293565471327e+000 0.000000000000e+000
          5.186083944243e+000 1.661927139510e+000 0.000000000000e+000
          5.452965511439e+000 2.679881546544e+000 0.000000000000e+000
          5.360460104304e+000 3.539902157655e+000 0.000000000000e+000
          6.197986304192e+000 3.115706366113e+000 0.000000000000e+000
          7.929356606585e-001 1.634705420870e+001 0.000000000000e+000
          1.222819867503e+000 1.599517159419e+001 0.000000000000e+000
          1.215723647926e+000 1.546209040954e+001 0.000000000000e+000
          1.770601276021e+000 1.521217632514e+001 0.000000000000e+000
          1.242830150061e+000 1.493919370237e+001 0.000000000000e+000
          1.166444124506e+000 4.610115997312e+000 0.000000000000e+000
          1.851620547934e+000 4.486892013458e+000 0.000000000000e+000
          1.494152702314e+000 5.145235789232e+000 0.000000000000e+000
          1.353088107040e+000 4.090803091641e+000 0.000000000000e+000
          3.802567455935e+000 5.084697985980e+000 0.000000000000e+000
          1.014840185783e+000 5.494768572296e+000 0.000000000000e+000
          8.831064584820e-001 5.109311190608e+000 0.000000000000e+000
          1.727903958959e+000 1.618384478933e+001 0.000000000000e+000
          1.343261525342e+000 1.651800241408e+001 0.000000000000e+000
          3.308120627291e+000 8.593311644828e+000 0.000000000000e+000
[...]
      <PointData Scalars="LIQUID_PRESSURE">
        <DataArray type="Float64" Name="LIQUID_PRESSURE" format="ascii">
          1.000000000000e+006 1.000000000000e+006 1.000000000000e+006 1.177375420367e+006 1.180984951628e+006 1.182617207973e+006 1.188999701508e+006 1.188090022027e+006 1.187830653595e+006 1.185529735663e+006 1.181973730722e+006 1.186905603500e+006 1.178794858394e+006 1.184992310148e+006 1.181127237811e+006 1.183572744921e+006 1.184687981181e+006 1.180353004929e+006 1.188254212306e+006 1.188164490425e+006 1.188336729193e+006 1.199698761408e+006 1.191761687950e+006 1.199666200393e+006 1.000000000000e+006 1.000000000000e+006 1.000000000000e+006 1.000000000000e+006 1.000000000000e+006 1.000000000000e+006 1.000000000000e+006 1.000000000000e+006 1.000000000000e+006 1.000000000000e+006 1.000000000042e+006 1.000000000009e+006 1.000000000006e+006 1.000000000106e+006 1.000000000025e+006 1.000000000003e+006 1.000000000009e+006 1.000000000042e+006 1.000000000006e+006 1.000000000106e+006 1.000000000000e+006 1.000000000000e+006 1.000000000000e+006 1.000000000000e+006 1.000000000000e+006 1.000000000000e+006 1.000000000000e+006 1.000000000000e+006 1.000000000000e+006 1.000000000000e+006 1.000000000000e+006 1.000000000000e+006 1.000000000000e+006 1.000000000000e+006 1.000000000000e+006 1.000000000280e+006 1.000000000187e+006 1.000000000602e+006 1.000000000280e+006 1.000000000602e+006 1.000000003244e+006 1.000000006580e+006 1.000000001119e+006 1.000000003244e+006 1.000000000000e+006 1.000000000000e+006 1.000000000000e+006 1.000000000000e+006 1.000000000000e+006 1.000000000000e+006 1.000000000000e+006 1.000000000000e+006 1.000000000000e+006 1.000000000000e+006 1.000000000001e+006 1.000000000001e+006 1.000000000000e+006 1.000000000001e+006 1.000000000001e+006 1.162089487685e+006 1.169770003342e+006 1.170193798419e+006 1.158253198380e+006 1.189115362669e+006 1.189252945308e+006 1.188914780401e+006 1.063963348556e+006 1.064322047354e+006 1.073499554495e+006 1.140051248296e+006 1.141851519880e+006 1.131567174712e+006 1.167413859331e+006 1.171651453903e+006 1.165280633158e+006 1.192429586983e+006 1.199677019730e+006 1.199733055410e+006 1.172086511397e+006 1.186053494712e+006 1.188624740171e+006 1.188837962259e+006 1.185379194925e+006 1.180166701035e+006 1.177431660825e+006 1.178538685668e+006 1.171437564332e+006 1.188510920180e+006 1.189142360252e+006 1.189144775282e+006 1.186758435918e+006 1.182751458255e+006 1.186365215457e+006 1.164238757365e+006 1.171762214560e+006 1.164786904570e+006 1.158326360676e+006 1.154993418251e+006 1.156150926243e+006 1.145317733952e+006 1.190190924533e+006 1.189076302151e+006 1.189131783245e+006 1.188660856598e+006 1.189211466100e+006 1.189284194594e+006 1.188480877699e+006 1.189044904645e+006 1.189131692978e+006 1.173969874888e+006 1.189473743733e+006 1.189692860981e+006 1.188679400539e+006 1.189118835345e+006 1.178819395208e+006 1.184154039609e+006 1.180428643870e+006 1.190076934015e+006 1.190195389401e+006 1.189131125766e+006 1.190224608237e+006 1.189664313604e+006 1.189102123534e+006 1.182203371722e+006 1.190070828715e+006 1.182377399778e+006 1.184902146593e+006 1.194907077362e+006 1.199602886931e+006 1.189157975963e+006 1.188761875014e+006 1.187369750627e+006 1.171313377703e+006 1.162086273774e+006 1.158579087907e+006 1.152837526238e+006 1.147972035730e+006 1.189063874868e+006 1.189089105945e+006 1.189740536165e+006 1.189632683096e+006 1.188747479690e+006 1.199647480095e+006 1.194679272349e+006 1.199571648950e+006 1.186559032016e+006 1.174083876558e+006 1.169792372292e+006 1.189019138107e+006 1.189267179088e+006 1.184248085761e+006 1.180215457276e+006 1.183434735547e+006 1.194303868031e+006 1.199717390633e+006 1.189198842273e+006 1.188368231444e+006 1.188483674002e+006 1.181521441754e+006 1.185591005796e+006 1.190000446086e+006 1.190745132167e+006 1.180138299690e+006 1.176669398914e+006 1.188682316814e+006 1.186756621380e+006 1.146378619948e+006 1.136020410115e+006 1.187023744565e+006 1.186638113480e+006 1.189441072341e+006 1.186716638658e+006 1.189003232590e+006 1.185158085729e+006 1.176323997147e+006 1.176492703803e+006 1.170107158238e+006 1.188104212272e+006 1.188755185359e+006 1.189140824796e+006 1.189458442219e+006 1.189005441815e+006 1.188920171435e+006 1.179533171011e+006 1.180440503804e+006 1.189071500217e+006 1.189322821563e+006 1.188935802304e+006 1.187548317174e+006 1.000000016465e+006 1.000000016464e+006 1.184175486882e+006 1.186868498435e+006 1.189362056132e+006 1.117362214986e+006 1.125441502800e+006 1.111072181526e+006 1.174712491609e+006 1.167568164827e+006 1.189295442894e+006 1.188997723616e+006 1.189702492478e+006 1.188483120982e+006 1.185377959646e+006 1.189733119290e+006 1.188134670641e+006 1.189076326997e+006 1.188847865362e+006 1.183934893648e+006 1.176726916332e+006 1.191410264300e+006 1.175374102906e+006 1.188500789261e+006 1.188676191767e+006 1.178420707498e+006 1.187055956549e+006 1.188925613292e+006 1.191984217730e+006 1.192235222175e+006 1.199691602560e+006 1.199609641744e+006 1.199754986786e+006 1.199657499647e+006 1.193439353964e+006 1.199384277217e+006 1.193559699667e+006 1.189357014130e+006 1.191240726564e+006 1.199290170248e+006 1.195660758715e+006 1.199509358039e+006 1.199586355944e+006 1.193107869860e+006 1.199623107747e+006 1.192678135998e+006 1.199637841120e+006 1.194288142275e+006 1.199622350519e+006 1.199599748619e+006 1.000000152026e+006 1.000000045143e+006 1.000000038921e+006 1.000000245775e+006 1.000000036685e+006 1.000000143889e+006 1.000000045138e+006 1.000000152005e+006 1.000000038915e+006 1.000000245744e+006 1.000000036682e+006 1.000000143875e+006 1.000001635151e+006 1.000000829428e+006 1.000000519787e+006 1.000002508489e+006 1.000000493885e+006 1.000001559699e+006 1.000000829328e+006 1.000001634946e+006 1.000000519719e+006 1.000002508204e+006 1.000000493839e+006 1.000001559560e+006 1.000513996009e+006 1.000355667292e+006 1.000276182288e+006 1.000647265753e+006 1.000268294782e+006 1.000500805259e+006 1.000355642198e+006 1.000513958446e+006 1.000276160209e+006 1.000647224374e+006 1.000268280009e+006 1.000500780662e+006 1.000140068896e+006 1.000090228476e+006 1.000066707339e+006 1.000184690174e+006 1.000064440559e+006 1.000135687815e+006 1.000090220807e+006 1.000140056652e+006 1.000066700986e+006 1.000184675839e+006 1.000064436239e+006 1.000135679532e+006 1.002454196677e+006 1.001931997044e+006 1.001528878630e+006 1.002974409068e+006 1.001931888506e+006 1.002454053766e+006 1.001528784546e+006 1.002974254092e+006 1.000029674651e+006 1.000017568120e+006 1.000012260812e+006 1.000041262882e+006 1.000011773770e+006 1.000028583290e+006 1.000017566364e+006 1.000029671588e+006 1.000012259450e+006 1.000041259066e+006 1.000011772843e+006 1.000028581204e+006 1.000004676327e+006 1.000006922796e+006 1.000004475999e+006 1.000004675773e+006 1.000006922055e+006 1.000004475623e+006 1.000907692345e+006 1.001230710915e+006 1.000887280624e+006 1.000907631473e+006 1.001230641240e+006 1.000887242336e+006 1.001509477821e+006 1.001509421703e+006 1.000003024530e+006 1.000005861073e+006 1.000002092720e+006 1.000008216129e+006 1.000003024390e+006 1.000008215771e+006 1.000207776116e+006 1.000317523074e+006 1.000163528563e+006 1.000395779202e+006 1.000207769783e+006 1.000395768510e+006 1.000001017190e+006 1.000000680196e+006 1.000001017140e+006 1.002138105046e+006 1.002437696442e+006 1.002437771857e+006 1.002138144899e+006 1.000015070019e+006 1.000020544363e+006 1.000020543531e+006 1.000102730596e+006 1.000079143248e+006 1.000102727114e+006 1.000047590719e+006 1.000035813946e+006 1.000047588946e+006 1.001227828926e+006 1.001227855552e+006 1.000581957872e+006 1.000713564761e+006 1.000713548021e+006 1.000000308077e+006 1.000000197976e+006 1.000000308061e+006 1.001084101681e+006 1.000000073915e+006 1.000000030075e+006 1.000000073911e+006 1.000000006913e+006 1.000000011036e+006 1.000000006914e+006 1.000000011038e+006 1.128086173476e+006 1.119250584111e+006 1.131207996503e+006 1.114893645280e+006 1.183024583157e+006 1.184359074451e+006 1.187060723339e+006 1.183011303613e+006 1.187022764997e+006 1.162378694187e+006 1.160124240218e+006 1.188953318356e+006 1.192539252149e+006 1.150743566078e+006 1.000000000000e+006 1.000000000000e+006 1.000000000000e+006 1.142492396186e+006 1.131210275735e+006 1.134983696043e+006 1.140638497993e+006 1.172723254324e+006 1.185029021047e+006 1.189299222490e+006 1.172426823456e+006 1.188973323377e+006 1.186396033653e+006 1.188689272397e+006 1.128157093244e+006 1.127565499217e+006 1.115546341897e+006 1.186529039252e+006 1.181637825698e+006 1.199664061021e+006 1.192708500385e+006 1.199693011679e+006 1.119240301219e+006 1.128627301492e+006 1.128650801458e+006 1.134600343501e+006 1.121518381932e+006 1.141802459425e+006 1.114903724937e+006 1.102394872265e+006 1.108856283686e+006 1.114888268745e+006 1.191484134493e+006 1.172037530846e+006 1.174118142279e+006 1.178810473985e+006 1.115229668719e+006 1.108681568206e+006 1.101725624998e+006 1.096600896475e+006 1.176610604452e+006 1.182951111743e+006 1.076940707922e+006 1.074834963938e+006 1.085208011225e+006 1.134385299642e+006 1.141085447412e+006 1.064175340261e+006 1.077198514354e+006 1.070212676845e+006 1.168304323458e+006 1.152505911514e+006 1.146377795276e+006 1.052905213801e+006 1.054019250973e+006 1.188829599605e+006 1.189108371798e+006 1.127988275871e+006 1.140251189050e+006 1.123547525478e+006 1.127241915954e+006 1.114990212963e+006 1.113855789055e+006 1.151383532934e+006 1.091106348684e+006 1.096686266775e+006 1.074957824283e+006 1.067443658791e+006 1.062631155144e+006 1.102709619025e+006 1.059896109345e+006 1.068191933475e+006 1.070795839473e+006 1.056104318196e+006 1.169197236458e+006 1.172273174171e+006 1.090528615680e+006 1.099751917590e+006 1.156506357557e+006 1.178999041061e+006 1.162410681385e+006 1.164777961085e+006 1.189209409856e+006 1.189476967381e+006 1.184285088179e+006 1.187384091121e+006 1.145998040765e+006 1.151544538831e+006 1.113525762659e+006 1.105923034124e+006 1.101105854121e+006 1.119894975136e+006 1.108261452908e+006 1.100849572792e+006 1.116972047499e+006 1.147238322991e+006 1.147591827027e+006 1.154034991876e+006 1.121627246104e+006 1.161876516275e+006 1.138395695316e+006 1.160645093716e+006 1.155924889862e+006 1.089241012016e+006 1.078122553655e+006 1.085120873772e+006 1.168281096638e+006 1.175241403790e+006 1.156693890863e+006 1.110053745438e+006 1.164344275146e+006 1.081058576563e+006 1.086395131042e+006 1.189580025659e+006 1.192664023911e+006 1.166485749961e+006 1.160501082105e+006 1.166917830118e+006 1.138294540113e+006 1.163926081987e+006 1.121780651259e+006 1.110624742140e+006 1.188140464476e+006 1.177711604231e+006 1.181012304039e+006 1.171596999921e+006 1.131957839147e+006 1.127869426101e+006 1.131111119363e+006 1.138812303047e+006 1.160419089236e+006 1.188677308949e+006 1.186202340137e+006 1.094616703655e+006 1.100799808497e+006 1.103510030330e+006 1.091544405104e+006 1.147766579126e+006 1.078925882081e+006 1.066580137707e+006 1.070285602845e+006 1.149785096539e+006 1.168303873506e+006 1.187276801454e+006 1.125438238990e+006 1.094466542040e+006 1.089669330404e+006 1.082768204763e+006 1.101103091665e+006 1.101034687220e+006 1.187462846449e+006 1.188645411557e+006 1.183310580233e+006 1.085647614809e+006 1.080347569093e+006 1.136973013978e+006 1.145122292101e+006 1.145873219018e+006 1.088971338509e+006 1.100320606867e+006 1.096499003451e+006 1.187586345012e+006 1.189139196732e+006 1.194505259275e+006 1.172679170165e+006 1.174812258598e+006 1.093549716351e+006 1.107800153420e+006 1.154438242164e+006 1.189182936800e+006 1.191341515349e+006 1.111517671387e+006 1.102061008112e+006 1.105456544610e+006 1.183631388564e+006 1.131619465683e+006 1.165263902365e+006 1.090903730390e+006 1.153712048158e+006 1.185660003419e+006 1.182512636942e+006 1.187860622687e+006 1.120544093435e+006 1.079956941349e+006 1.182809475602e+006 1.178691030780e+006 1.110293188362e+006 1.072590571137e+006 1.082198798619e+006 1.180755084152e+006 1.192450207797e+006 1.194055120476e+006 1.096405321884e+006 1.091212952579e+006 1.084239668200e+006 1.000000000000e+006 1.000000000000e+006 1.000000000000e+006 1.118673517876e+006 1.192884707525e+006 1.185508302611e+006 1.184481996415e+006 1.181228741908e+006 1.166213871423e+006 1.119035158761e+006 1.177156341851e+006 1.165052814151e+006 1.160168529808e+006 1.000000002169e+006 1.000000002170e+006 1.192754273811e+006 1.199646592606e+006 1.188752178398e+006 1.160277950485e+006 1.103383238768e+006 1.152374649482e+006 1.109153908819e+006 1.190025906628e+006 1.134527243232e+006 1.189009869811e+006 1.086574914911e+006 1.088567795013e+006 1.128576811267e+006 1.000000000000e+006 1.000000000000e+006 1.171604613639e+006 1.153357137568e+006 1.156632072004e+006 1.146685145991e+006 1.122060647151e+006 1.191753971825e+006 1.003500594761e+006 1.003371884451e+006 1.003500525564e+006 1.003371850214e+006 1.177395583766e+006 1.190771279675e+006 1.123013759918e+006 1.189160992582e+006 1.003053668711e+006 1.002563633093e+006 1.001954032967e+006 1.002563649107e+006 1.080749850798e+006 1.072814596183e+006 1.189037480336e+006 1.086964561458e+006 1.175388362909e+006 1.179525562436e+006 1.170482609090e+006 1.167135906589e+006 1.189408094581e+006 1.189340430916e+006 1.187566027968e+006 1.189205535002e+006 1.065177921121e+006 1.077735728734e+006 1.000000000000e+006 1.000000000000e+006 1.193787670864e+006 1.187862439619e+006 1.172405571509e+006 1.185438960500e+006 1.113112010291e+006 1.193635014011e+006 1.122258516834e+006 1.000000001530e+006 1.000000001530e+006 1.057853120901e+006 1.144770730516e+006 1.047495750058e+006 1.041810876336e+006 1.037850362186e+006 1.080554345552e+006 1.170545322857e+006 1.173613905544e+006 1.068737156093e+006 1.000000000000e+006 1.000000000000e+006 1.059387039305e+006 1.199685526504e+006 1.199513835634e+006 1.071323881988e+006 1.199473321561e+006 1.194029191531e+006 1.199668577121e+006 1.075918586864e+006 1.005526525356e+006 1.004357789416e+006 1.004185281419e+006 1.006778087861e+006 1.006286284202e+006 1.004357797578e+006 1.006778068309e+006 1.006286270088e+006 1.007925435472e+006 1.009591954241e+006 1.008553822895e+006 1.009591929734e+006 1.008553719667e+006 1.011060846174e+006 1.013175051758e+006 1.011856407900e+006 1.013174717261e+006 1.011856635312e+006 1.015012970106e+006 1.017631323836e+006 1.016000193582e+006 1.017627983993e+006 1.016000103600e+006 1.019871534822e+006 1.023064405905e+006 1.021072774491e+006 1.023042880168e+006 1.021067829145e+006 1.025719423968e+006 1.029643594129e+006 1.027187328258e+006 1.029534819607e+006 1.027141973929e+006 1.004863495181e+006 1.005047032732e+006 1.006905086629e+006 1.007594212737e+006 1.005047066179e+006 1.004863589186e+006 1.006905152474e+006 1.007594199220e+006 1.009750280240e+006 1.010644937115e+006 1.009750303866e+006 1.010644981876e+006 1.013375091361e+006 1.014497022886e+006 1.013375288521e+006 1.014496443060e+006 1.017871035664e+006 1.019254201715e+006 1.017871213392e+006 1.019248146446e+006 1.012600304896e+006 1.015254721530e+006 1.011274119302e+006 1.016879912870e+006 1.010307130023e+006 1.014467803354e+006 1.015256402643e+006 1.012601212652e+006 1.011275000993e+006 1.016881482065e+006 1.010307570081e+006 1.014468280184e+006 1.020154089899e+006 1.022163510467e+006 1.019222957778e+006 1.020157710754e+006 1.022166652369e+006 1.019222971902e+006 1.026029114248e+006 1.028606529460e+006 1.025020827121e+006 1.026037288767e+006 1.028616245622e+006 1.025016994804e+006 1.032932105221e+006 1.036840021840e+006 1.031407301939e+006 1.032944210497e+006 1.036777656482e+006 1.031816493654e+006 1.040882334994e+006 1.045925677682e+006 1.040889206412e+006 1.045387767839e+006 1.023329800347e+006 1.025042284230e+006 1.023327257959e+006 1.025002388598e+006 1.006045675361e+006 1.003540411332e+006 1.004649666383e+006 1.006045847558e+006 1.003540537680e+006 1.004649895058e+006 1.008568395798e+006 1.007175526515e+006 1.008568572144e+006 1.007175867019e+006 1.011887368188e+006 1.011887489451e+006 1.016041228307e+006 1.016041143180e+006 1.021163013493e+006 1.021162324298e+006 1.094334158719e+006 1.106922423234e+006 1.094547356633e+006 1.192923973977e+006 1.027472980562e+006 1.027470087914e+006 1.049883234430e+006 1.049887273534e+006 1.032664062382e+006 1.037718680032e+006 1.034696693242e+006 1.037354211765e+006 1.034346056735e+006 1.029880630184e+006 1.032144415059e+006 1.029855042633e+006 1.031929632086e+006 1.034019395583e+006 1.082377844611e+006 1.034713768065e+006 1.094533780133e+006 1.106916519795e+006 1.055536860885e+006 1.059899389090e+006 1.037667285572e+006 1.044006057648e+006 1.040533829022e+006 1.040339562922e+006 1.040984421107e+006 1.045369053519e+006 1.045220857236e+006 1.046671265300e+006 1.044384054532e+006 1.051304244404e+006 1.048822946317e+006 1.051067102442e+006 1.045595184451e+006 1.051235966642e+006 1.057332780298e+006 1.138900001533e+006 1.088628792591e+006 1.056639006936e+006 1.148690116703e+006 1.192616766305e+006 1.055135523038e+006 1.000000000000e+006 1.000000000000e+006 1.000000000000e+006 1.134714551875e+006 1.141521858257e+006 1.149190197602e+006 1.143708842625e+006 1.135988653188e+006 1.177224872822e+006 1.199661048109e+006 1.148249998104e+006 1.199503363604e+006 1.129613518639e+006 1.070764475937e+006 1.067443148037e+006 1.176942171836e+006 1.160370441909e+006 1.063990877512e+006 1.058528083006e+006 1.138960097608e+006 1.062220562973e+006 1.064362793790e+006 1.097587533007e+006 1.080296685298e+006 1.038683236371e+006 1.135111097050e+006 1.000000000621e+006 1.000000000621e+006 1.168557287104e+006 1.001718959594e+006 1.001718943550e+006 1.050723606544e+006 1.160431355145e+006 1.139839012895e+006 1.049745326588e+006 1.151709959397e+006 1.154790254433e+006 1.188999319724e+006 1.043039190210e+006 1.044838720491e+006 1.043703480013e+006 1.122960881753e+006 1.000000000000e+006 1.000000000000e+006 1.108785517271e+006 1.077437931045e+006 1.000000000000e+006 1.199749272941e+006 1.192213865547e+006 1.199619669862e+006 1.054226362600e+006 1.132735230620e+006 1.000000000000e+006 1.169945980317e+006 1.170205290379e+006 1.152835277471e+006 1.065585717347e+006 1.165532300009e+006 1.003783640434e+006 1.003783856422e+006 1.169999385544e+006 1.194148176686e+006 1.087691540206e+006 1.174560001227e+006 1.165211959060e+006 1.195970737123e+006 1.176902647202e+006 1.182672356314e+006 1.146500142358e+006 1.113824939272e+006 1.119252548092e+006 1.159815435427e+006 1.199609299952e+006 1.163439432141e+006 1.199644503343e+006 1.082389419488e+006 1.076944031865e+006 1.177256194255e+006 1.066118536020e+006 1.000000000000e+006 1.057994575801e+006 1.000000000000e+006 1.050859271661e+006 1.154344837796e+006 1.062606540302e+006 1.181700516960e+006 1.059340975561e+006 1.139876738652e+006 1.037364061702e+006 1.163750983459e+006 1.142486392141e+006 1.199717053376e+006 1.199638844799e+006 1.199664842484e+006 1.199457849917e+006 1.000000000000e+006 1.000000000000e+006 1.000000000000e+006 1.000000000000e+006 1.194615186409e+006 1.000000000000e+006 1.000000000000e+006 1.190078410930e+006 1.195032831563e+006 1.199078344946e+006 1.137787746346e+006 1.000000000000e+006 1.149822532739e+006 1.159275409307e+006 1.002129267199e+006 1.002129364461e+006 1.005618337732e+006 1.005618668396e+006 1.199651556274e+006 1.195944838975e+006 1.008888373598e+006 1.008887825485e+006 1.008079324000e+006 1.008079838734e+006 1.195177601115e+006 1.199061167494e+006 
        </DataArray>
        <DataArray type="Float64" Name="MOLAR_FRACTION" format="ascii">