<?xml version="1.0"?>
<VTKFile type="UnstructuredGrid" version="0.1" byte_order="LittleEndian">
  <UnstructuredGrid>
    <Piece NumberOfPoints="963" NumberOfCells="1758">
      <Points>
        <DataArray type="Float64" NumberOfComponents="3" format="ascii">
          1.600262034769e+002 1.257989505921e+001 0.000000000000e+000
          1.635346199106e+002 2.000000000000e+001 0.000000000000e+000
          1.554515002484e+002 2.000000000000e+001 0.000000000000e+000
          3.459306441575e+000 1.667621982453e+001 0.000000000000e+000
          3.062266634850e+000 1.705413688405e+001 0.000000000000e+000
          2.873380769063e+000 1.650527725632e+001 0.000000000000e+000
          1.514088444034e+000 1.865189448105e+001 0.000000000000e+000
          1.967902677551e+000 1.834103489750e+001 0.000000000000e+000
          2.034564522234e+000 1.890806711991e+001 0.000000000000e+000
          2.478275273162e+000 1.702762299110e+001 0.000000000000e+000
          2.952621433467e+000 1.774357373580e+001 0.000000000000e+000
          2.237893542067e+000 1.782457469610e+001 0.000000000000e+000
          3.313583922780e+000 3.274674552047e+000 0.000000000000e+000
          2.561432712787e+000 3.156040447793e+000 0.000000000000e+000
          3.047531989640e+000 2.714594415171e+000 0.000000000000e+000
          2.750804692284e+000 3.936058190693e+000 0.000000000000e+000
          2.599039179818e+000 2.451529939148e+000 0.000000000000e+000
          3.139686649742e+000 2.186924052088e+000 0.000000000000e+000
          1.919984553221e+000 3.358010194268e+000 0.000000000000e+000
          1.960900304591e+000 2.773319745251e+000 0.000000000000e+000
          1.894565400391e+000 1.733316857565e+001 0.000000000000e+000
          0.000000000000e+000 1.538461538461e+001 0.000000000000e+000
          5.816229249735e-001 1.567919247147e+001 0.000000000000e+000
          0.000000000000e+000 1.589743589743e+001 0.000000000000e+000
          9.766405669483e+001 2.000000000000e+001 0.000000000000e+000
          1.010672711393e+002 1.500000000000e+001 0.000000000000e+000
          1.029329279907e+002 2.000000000000e+001 0.000000000000e+000
          9.588503785413e+001 1.500000000000e+001 0.000000000000e+000
          1.039231647117e+002 1.000000000000e+001 0.000000000000e+000
          9.860830811271e+001 1.000000000000e+001 0.000000000000e+000
          1.010672711397e+002 5.000000000000e+000 0.000000000000e+000
          9.766405669557e+001 0.000000000000e+000 0.000000000000e+000
          1.029329279915e+002 0.000000000000e+000 0.000000000000e+000
          9.588503785449e+001 5.000000000000e+000 0.000000000000e+000
          7.892434178002e+001 2.000000000000e+001 0.000000000000e+000
          8.173808356948e+001 1.500000000000e+001 0.000000000000e+000
          8.328058896910e+001 2.000000000000e+001 0.000000000000e+000
          7.679274808893e+001 1.514423393202e+001 0.000000000000e+000
          7.970503892166e+001 1.000000000000e+001 0.000000000000e+000
          8.409930620613e+001 1.000000000000e+001 0.000000000000e+000
          8.173808356980e+001 5.000000000000e+000 0.000000000000e+000
          7.892434178065e+001 0.000000000000e+000 0.000000000000e+000
          8.328058896976e+001 0.000000000000e+000 0.000000000000e+000
          7.679274808925e+001 4.855766067979e+000 0.000000000000e+000
          1.084583939765e+002 2.000000000000e+001 0.000000000000e+000
          1.122011528880e+002 1.500000000000e+001 0.000000000000e+000
          1.142529496098e+002 2.000000000000e+001 0.000000000000e+000
          1.065018792644e+002 1.500000000000e+001 0.000000000000e+000
          1.153419838410e+002 1.000000000000e+001 0.000000000000e+000
          1.094968549120e+002 1.000000000000e+001 0.000000000000e+000
          1.122011528884e+002 5.000000000000e+000 0.000000000000e+000
          1.084583939773e+002 0.000000000000e+000 0.000000000000e+000
          1.142529496106e+002 0.000000000000e+000 0.000000000000e+000
          1.065018792648e+002 5.000000000000e+000 0.000000000000e+000
          1.181779812237e+002 1.500000000000e+001 0.000000000000e+000
          1.203297004775e+002 2.000000000000e+001 0.000000000000e+000
          1.214717707847e+002 1.000000000000e+001 0.000000000000e+000
          1.181779812242e+002 5.000000000000e+000 0.000000000000e+000
          1.203297004784e+002 0.000000000000e+000 0.000000000000e+000
          7.477039199538e+001 2.000000000000e+001 0.000000000000e+000
          7.551483469771e+001 1.000000000000e+001 0.000000000000e+000
          7.296959467356e+001 1.385646386579e+001 0.000000000000e+000
          7.477039199599e+001 0.000000000000e+000 0.000000000000e+000
          7.296959467379e+001 6.143536134207e+000 0.000000000000e+000
          6.918477198508e+001 1.366665532880e+001 0.000000000000e+000
          6.746477463053e+001 1.000000000000e+001 0.000000000000e+000
          7.151921701478e+001 1.000000000000e+001 0.000000000000e+000
          6.918477198529e+001 6.333344671202e+000 0.000000000000e+000
          9.263986346551e+001 2.000000000000e+001 0.000000000000e+000
          9.094345943471e+001 1.500000000000e+001 0.000000000000e+000
          9.354026529380e+001 1.000000000000e+001 0.000000000000e+000
          9.263986346623e+001 0.000000000000e+000 0.000000000000e+000
          9.094345943506e+001 5.000000000000e+000 0.000000000000e+000
          1.244344522558e+002 1.503312574389e+001 0.000000000000e+000
          1.267023895482e+002 2.000000000000e+001 0.000000000000e+000
          1.285510028831e+002 1.020485663255e+001 0.000000000000e+000
          1.244344522563e+002 5.033125743893e+000 0.000000000000e+000
          1.267023895491e+002 0.000000000000e+000 0.000000000000e+000
          8.623136018348e+001 1.500000000000e+001 0.000000000000e+000
          8.784898578901e+001 2.000000000000e+001 0.000000000000e+000
          8.870757443665e+001 1.000000000000e+001 0.000000000000e+000
          8.623136018382e+001 5.000000000000e+000 0.000000000000e+000
          8.784898578969e+001 0.000000000000e+000 0.000000000000e+000
          4.872472752737e+000 0.000000000000e+000 0.000000000000e+000
          4.204479229380e+000 6.412840757122e-001 0.000000000000e+000
          4.157376851380e+000 0.000000000000e+000 0.000000000000e+000
          5.192892237051e+000 7.280355562789e-001 0.000000000000e+000
          1.306630304579e+000 6.212843344151e-001 0.000000000000e+000
          1.050228457081e+000 0.000000000000e+000 0.000000000000e+000
          1.614006202528e+000 0.000000000000e+000 0.000000000000e+000
          1.266763055794e+001 1.554696422866e+001 0.000000000000e+000
          1.263589100638e+001 1.657720348306e+001 0.000000000000e+000
          1.174268578662e+001 1.633018318031e+001 0.000000000000e+000
          6.588835695415e+000 7.505681085529e+000 0.000000000000e+000
          6.456871838389e+000 6.658671683861e+000 0.000000000000e+000
          7.208099140752e+000 7.038822846307e+000 0.000000000000e+000
          4.412623338166e+000 9.138856431549e+000 0.000000000000e+000
          4.024185797397e+000 8.708923235630e+000 0.000000000000e+000
          4.601447447338e+000 8.507292699647e+000 0.000000000000e+000
          5.325995059827e-001 6.308307298123e+000 0.000000000000e+000
          0.000000000000e+000 6.666666666655e+000 0.000000000000e+000
          0.000000000000e+000 6.153846153835e+000 0.000000000000e+000
          3.986461521768e+000 8.146114708182e+000 0.000000000000e+000
          2.411603373059e+000 6.510912162016e+000 0.000000000000e+000
          1.807525763324e+000 6.938080373464e+000 0.000000000000e+000
          1.686779352680e+000 6.178928843543e+000 0.000000000000e+000
          2.510760620997e+000 7.229076682239e+000 0.000000000000e+000
          3.166991983438e+000 6.906135870389e+000 0.000000000000e+000
          3.452788915829e+000 6.276851216781e+000 0.000000000000e+000
          3.340122000742e+000 5.656365440432e+000 0.000000000000e+000
          4.047936562877e+000 5.873561587395e+000 0.000000000000e+000
          1.802463974828e+000 1.292744708026e+001 0.000000000000e+000
          1.383967161336e+000 1.330299552906e+001 0.000000000000e+000
          1.329690820161e+000 1.266495373033e+001 0.000000000000e+000
          2.267922292389e+000 1.431116835808e+001 0.000000000000e+000
          2.854613987538e+000 1.466581611369e+001 0.000000000000e+000
          2.339869278674e+000 1.493776402241e+001 0.000000000000e+000
          4.690956878046e+000 3.115726773737e+000 0.000000000000e+000
          4.014773718330e+000 2.850429494150e+000 0.000000000000e+000
          4.643493383296e+000 2.293565471327e+000 0.000000000000e+000
          5.186083944243e+000 1.661927139510e+000 0.000000000000e+000
          5.452965511439e+000 2.679881546544e+000 0.000000000000e+000
          5.360460104304e+000 3.539902157655e+000 0.000000000000e+000
          6.197986304192e+000 3.115706366113e+000 0.000000000000e+000
          7.929356606585e-001 1.634705420870e+001 0.000000000000e+000
          1.222819867503e+000 1.599517159419e+001 0.000000000000e+000
          1.215723647926e+000 1.546209040954e+001 0.000000000000e+000
          1.770601276021e+000 1.521217632514e+001 0.000000000000e+000
          1.242830150061e+000 1.493919370237e+001 0.000000000000e+000
          1.166444124506e+000 4.610115997312e+000 0.000000000000e+000
          1.851620547934e+000 4.486892013458e+000 0.000000000000e+000
          1.494152702314e+000 5.145235789232e+000 0.000000000000e+000
          1.353088107040e+000 4.090803091641e+000 0.000000000000e+000
          3.802567455935e+000 5.084697985980e+000 0.000000000000e+000
          1.014840185783e+000 5.494768572296e+000 0.000000000000e+000
          8.831064584820e-001 5.109311190608e+000 0.000000000000e+000
          1.727903958959e+000 1.618384478933e+001 0.000000000000e+000
          1.343261525342e+000 1.651800241408e+001 0.000000000000e+000
          3.308120627291e+000 8.593311644828e+000 0.000000000000e+000
[...]
      <PointData Scalars="LIQUID_PRESSURE">
        <DataArray type="Float64" Name="LIQUID_PRESSURE" format="ascii">
          1.000000000000e+006 1.000000000000e+006 1.000000000000e+006 1.158027105519e+006 1.161983956081e+006 1.163762120031e+006 1.170673487187e+006 1.169607040342e+006 1.169328358905e+006 1.166889919439e+006 1.163067166381e+006 1.168354340139e+006 1.159592985202e+006 1.166319163494e+006 1.162140936209e+006 1.164796342709e+006 1.165988366741e+006 1.161299455674e+006 1.169786921924e+006 1.169683973917e+006 1.169874787289e+006 1.182899585352e+006 1.174630265473e+006 1.182850632372e+006 1.000000000000e+006 1.000000000000e+006 1.000000000000e+006 1.000000000000e+006 1.000000000000e+006 1.000000000000e+006 1.000000000000e+006 1.000000000000e+006 1.000000000000e+006 1.000000000000e+006 1.000000000002e+006 1.000000000000e+006 1.000000000000e+006 1.000000000005e+006 1.000000000001e+006 1.000000000000e+006 1.000000000000e+006 1.000000000002e+006 1.000000000000e+006 1.000000000005e+006 1.000000000000e+006 1.000000000000e+006 1.000000000000e+006 1.000000000000e+006 1.000000000000e+006 1.000000000000e+006 1.000000000000e+006 1.000000000000e+006 1.000000000000e+006 1.000000000000e+006 1.000000000000e+006 1.000000000000e+006 1.000000000000e+006 1.000000000000e+006 1.000000000000e+006 1.000000000016e+006 1.000000000010e+006 1.000000000036e+006 1.000000000016e+006 1.000000000036e+006 1.000000000226e+006 1.000000000486e+006 1.000000000069e+006 1.000000000226e+006 1.000000000000e+006 1.000000000000e+006 1.000000000000e+006 1.000000000000e+006 1.000000000000e+006 1.000000000000e+006 1.000000000000e+006 1.000000000000e+006 1.000000000000e+006 1.000000000000e+006 1.000000000000e+006 1.000000000000e+006 1.000000000000e+006 1.000000000000e+006 1.000000000000e+006 1.141234818222e+006 1.149629491045e+006 1.150103835200e+006 1.137081993710e+006 1.170923487749e+006 1.171375099821e+006 1.170538123088e+006 1.046774962950e+006 1.047087643675e+006 1.054968826904e+006 1.118003442001e+006 1.119838855848e+006 1.109397126155e+006 1.147042695483e+006 1.151710162080e+006 1.144704615179e+006 1.175374536448e+006 1.182889788308e+006 1.182910690367e+006 1.152191479258e+006 1.167435299812e+006 1.170157867556e+006 1.170422968235e+006 1.166721792597e+006 1.161096589422e+006 1.158088698899e+006 1.159307798649e+006 1.151468450174e+006 1.170078566585e+006 1.170895229881e+006 1.170944797089e+006 1.168194500669e+006 1.163905158204e+006 1.167776084000e+006 1.143567404351e+006 1.151830767989e+006 1.144165789765e+006 1.137163121003e+006 1.133599780028e+006 1.134833240080e+006 1.123423548497e+006 1.172699631583e+006 1.170979054035e+006 1.171044826097e+006 1.170230610843e+006 1.171094600188e+006 1.171235541867e+006 1.170023111842e+006 1.170726806766e+006 1.170915976699e+006 1.154266185832e+006 1.171644622981e+006 1.172054063269e+006 1.170265436788e+006 1.170911008581e+006 1.159618073490e+006 1.165416846222e+006 1.161382053239e+006 1.172519346233e+006 1.172698685837e+006 1.170963643243e+006 1.172772243829e+006 1.171924089845e+006 1.170840122240e+006 1.163316024966e+006 1.172542583002e+006 1.163494102128e+006 1.166221170023e+006 1.178023396373e+006 1.182754435836e+006 1.171009971433e+006 1.170363316145e+006 1.168837293743e+006 1.151337698200e+006 1.141227512977e+006 1.137425668718e+006 1.131308900057e+006 1.126190403810e+006 1.170770092899e+006 1.170824087948e+006 1.172034252008e+006 1.171988981555e+006 1.170332457251e+006 1.182809217642e+006 1.177795471859e+006 1.182708017151e+006 1.167977516034e+006 1.154392335176e+006 1.149652082082e+006 1.170732981693e+006 1.171331421626e+006 1.165516378495e+006 1.161143615029e+006 1.164639147668e+006 1.177398009490e+006 1.182868001120e+006 1.171297410896e+006 1.169915473017e+006 1.170044775825e+006 1.162568420573e+006 1.166952756653e+006 1.172448465738e+006 1.173368213625e+006 1.161062677162e+006 1.157250305466e+006 1.170258147063e+006 1.168192620034e+006 1.124524750335e+006 1.113880871705e+006 1.168475816203e+006 1.168069885424e+006 1.171707961855e+006 1.168148607718e+006 1.170686366270e+006 1.166491298579e+006 1.156868308827e+006 1.157054861351e+006 1.150004833819e+006 1.169614967344e+006 1.170352522081e+006 1.171034201700e+006 1.171691809807e+006 1.170892320918e+006 1.170551928643e+006 1.160397348161e+006 1.161389625174e+006 1.170807408151e+006 1.171418088697e+006 1.170581089943e+006 1.169025702714e+006 1.000000001353e+006 1.000000001353e+006 1.165437097365e+006 1.168303175941e+006 1.171623156074e+006 1.095372645638e+006 1.103281603239e+006 1.089302499326e+006 1.155088138899e+006 1.147207899662e+006 1.171442471880e+006 1.170679867194e+006 1.172010245462e+006 1.170035628766e+006 1.166724252178e+006 1.172034183982e+006 1.169656017327e+006 1.171054025174e+006 1.170753723403e+006 1.165179440168e+006 1.157308743666e+006 1.174221587366e+006 1.155821502332e+006 1.170053722151e+006 1.170226345295e+006 1.159180825627e+006 1.168502781110e+006 1.170561412465e+006 1.174881380918e+006 1.175158217387e+006 1.182933032947e+006 1.182820031341e+006 1.182964048324e+006 1.182846777993e+006 1.176493115353e+006 1.182449266041e+006 1.176614430301e+006 1.171528057340e+006 1.174011379810e+006 1.182370475903e+006 1.178814548639e+006 1.182623593243e+006 1.182730911067e+006 1.176127422426e+006 1.182763876705e+006 1.175649983682e+006 1.182797345912e+006 1.177389836677e+006 1.182771720610e+006 1.182727141521e+006 1.000000016123e+006 1.000000004083e+006 1.000000003527e+006 1.000000027431e+006 1.000000003321e+006 1.000000015158e+006 1.000000004083e+006 1.000000016120e+006 1.000000003526e+006 1.000000027426e+006 1.000000003321e+006 1.000000015156e+006 1.000000228841e+006 1.000000106720e+006 1.000000063403e+006 1.000000369513e+006 1.000000059814e+006 1.000000216701e+006 1.000000106699e+006 1.000000228793e+006 1.000000063390e+006 1.000000369443e+006 1.000000059805e+006 1.000000216669e+006 1.000164957616e+006 1.000107169800e+006 1.000079972249e+006 1.000215610304e+006 1.000077203158e+006 1.000159835778e+006 1.000107154751e+006 1.000164933198e+006 1.000079959599e+006 1.000215582279e+006 1.000077194871e+006 1.000159820160e+006 1.000036382306e+006 1.000021847783e+006 1.000015458208e+006 1.000050028654e+006 1.000014827466e+006 1.000035006669e+006 1.000021844272e+006 1.000036376177e+006 1.000015455451e+006 1.000050021111e+006 1.000014825621e+006 1.000035002598e+006 1.001032755446e+006 1.000779629055e+006 1.000592089522e+006 1.001294505074e+006 1.000779536687e+006 1.001032627857e+006 1.000592013102e+006 1.001294361395e+006 1.000006103935e+006 1.000003348043e+006 1.000002228083e+006 1.000008885099e+006 1.000002123913e+006 1.000005836861e+006 1.000003347447e+006 1.000006102790e+006 1.000002227647e+006 1.000008883590e+006 1.000002123619e+006 1.000005836092e+006 1.000000747403e+006 1.000001162418e+006 1.000000710152e+006 1.000000747252e+006 1.000001162203e+006 1.000000710050e+006 1.000320919434e+006 1.000457985071e+006 1.000312262601e+006 1.000320874972e+006 1.000457931218e+006 1.000312235301e+006 1.000582943960e+006 1.000582899121e+006 1.000000457093e+006 1.000000967090e+006 1.000000302805e+006 1.000001413875e+006 1.000000457058e+006 1.000001413768e+006 1.000057373597e+006 1.000094002988e+006 1.000043531155e+006 1.000121395822e+006 1.000057370246e+006 1.000121389414e+006 1.000000134409e+006 1.000000085909e+006 1.000000134399e+006 1.000876205013e+006 1.001025261867e+006 1.001025329180e+006 1.000876239280e+006 1.000002822780e+006 1.000004007812e+006 1.000004007523e+006 1.000025394524e+006 1.000018835277e+006 1.000025392910e+006 1.000010476352e+006 1.000007580103e+006 1.000010475639e+006 1.000456982302e+006 1.000457002296e+006 1.000190413218e+006 1.000241672039e+006 1.000241660766e+006 1.000000035378e+006 1.000000021672e+006 1.000000035375e+006 1.000394120192e+006 1.000000007211e+006 1.000000002555e+006 1.000000007211e+006 1.000000000499e+006 1.000000000878e+006 1.000000000499e+006 1.000000000878e+006 1.105920836638e+006 1.097215620523e+006 1.109039813553e+006 1.092978711846e+006 1.164203044636e+006 1.165635936474e+006 1.168512627101e+006 1.164182178384e+006 1.168469854640e+006 1.141541020944e+006 1.139097601975e+006 1.170564909989e+006 1.175512617489e+006 1.129107256027e+006 1.000000000000e+006 1.000000000000e+006 1.000000000000e+006 1.120503089908e+006 1.109036884697e+006 1.112836078988e+006 1.118597516445e+006 1.152892824706e+006 1.166358905159e+006 1.171365223319e+006 1.152563297774e+006 1.170608852540e+006 1.167798527799e+006 1.170259710070e+006 1.105991050050e+006 1.105405706838e+006 1.093601908841e+006 1.167944329525e+006 1.162702664437e+006 1.182901285761e+006 1.175684067947e+006 1.182858063740e+006 1.097214308386e+006 1.106449271239e+006 1.106469214605e+006 1.112447822660e+006 1.099426744641e+006 1.119786848450e+006 1.092992046877e+006 1.081097070231e+006 1.087196663034e+006 1.092972789892e+006 1.174306378162e+006 1.152132348477e+006 1.154435976030e+006 1.159603653135e+006 1.093308600240e+006 1.087030592244e+006 1.080469009029e+006 1.075705070019e+006 1.157189219811e+006 1.164122853797e+006 1.057968049098e+006 1.056145967540e+006 1.065325191543e+006 1.112231685210e+006 1.119052408054e+006 1.046946015320e+006 1.058203262648e+006 1.052123680870e+006 1.148022438711e+006 1.130957581719e+006 1.124525002056e+006 1.037544596451e+006 1.038460300556e+006 1.170430233601e+006 1.171010965307e+006 1.105818878808e+006 1.118198941330e+006 1.101430304484e+006 1.105076261673e+006 1.093069009306e+006 1.091984533450e+006 1.129769700234e+006 1.070660717415e+006 1.075781480009e+006 1.056245635647e+006 1.049745696964e+006 1.045643733717e+006 1.081389622257e+006 1.043349076197e+006 1.050389118268e+006 1.052631392506e+006 1.040180031313e+006 1.149005986506e+006 1.152397530806e+006 1.070125771519e+006 1.078609869495e+006 1.135211071974e+006 1.159815489171e+006 1.141581771505e+006 1.144157349922e+006 1.171288898862e+006 1.171738770893e+006 1.165554861410e+006 1.168851478139e+006 1.124130116092e+006 1.129939800080e+006 1.091674722938e+006 1.084414772700e+006 1.079890008659e+006 1.097833975393e+006 1.086638984981e+006 1.079636637348e+006 1.094983714320e+006 1.125432491535e+006 1.125802453011e+006 1.132585566424e+006 1.099534765586e+006 1.140994015351e+006 1.116306911967e+006 1.139661684867e+006 1.134589561404e+006 1.068962327641e+006 1.059018875403e+006 1.065240254957e+006 1.147994518004e+006 1.155675021671e+006 1.135414683660e+006 1.088344955096e+006 1.143680359798e+006 1.061617423767e+006 1.066387794760e+006 1.171812341185e+006 1.175622787433e+006 1.146031428198e+006 1.139517910070e+006 1.146506004459e+006 1.116198981751e+006 1.143224304787e+006 1.099690402002e+006 1.088885954121e+006 1.169657554883e+006 1.158398892075e+006 1.162016671567e+006 1.151647659079e+006 1.109789022671e+006 1.105707659792e+006 1.108930254582e+006 1.116729640766e+006 1.139418738637e+006 1.170266621597e+006 1.167602391780e+006 1.073878408815e+006 1.079596931781e+006 1.082142138190e+006 1.071056157429e+006 1.125974337537e+006 1.059726850160e+006 1.049003470550e+006 1.052182067744e+006 1.128080247592e+006 1.148017330138e+006 1.168734358191e+006 1.103273272681e+006 1.073736769590e+006 1.069352681828e+006 1.063141131831e+006 1.079875983242e+006 1.079829855745e+006 1.168940166198e+006 1.170210062288e+006 1.164511794739e+006 1.065721349620e+006 1.060995832306e+006 1.114863284036e+006 1.123228844365e+006 1.124006068115e+006 1.068721202936e+006 1.079161344115e+006 1.075602900724e+006 1.169061763404e+006 1.171182041135e+006 1.177625097343e+006 1.152840116562e+006 1.155198716437e+006 1.072894402939e+006 1.086192610497e+006 1.132998528149e+006 1.171205980216e+006 1.174140970436e+006 1.089736979618e+006 1.080771800449e+006 1.083982653717e+006 1.164854312219e+006 1.109446399852e+006 1.144683085917e+006 1.070475121550e+006 1.132232733807e+006 1.167021773362e+006 1.163643979228e+006 1.169350180510e+006 1.098477700189e+006 1.060642515996e+006 1.163964727064e+006 1.159472869299e+006 1.088576428642e+006 1.054185337463e+006 1.062631869808e+006 1.161734720065e+006 1.175391116224e+006 1.177128150220e+006 1.075520320838e+006 1.070757945498e+006 1.064455707799e+006 1.000000000000e+006 1.000000000000e+006 1.000000000000e+006 1.096653516621e+006 1.175830494880e+006 1.166861717494e+006 1.165768459669e+006 1.162251631652e+006 1.145722714226e+006 1.097006570706e+006 1.157784668208e+006 1.144459150134e+006 1.139146307063e+006 1.000000000145e+006 1.000000000146e+006 1.175715310531e+006 1.182833498104e+006 1.170354128816e+006 1.139262271603e+006 1.082018990322e+006 1.130821987143e+006 1.087473457462e+006 1.172505730753e+006 1.112367098129e+006 1.170702020986e+006 1.066552722210e+006 1.068346372565e+006 1.106404006092e+006 1.000000000000e+006 1.000000000000e+006 1.151657122594e+006 1.131858921815e+006 1.135343884589e+006 1.124842574673e+006 1.099959530525e+006 1.174622324410e+006 1.001568645473e+006 1.001501085802e+006 1.001568576457e+006 1.001501051183e+006 1.158048953768e+006 1.173475125228e+006 1.100908929537e+006 1.171271248179e+006 1.001336385934e+006 1.001085766009e+006 1.000788783597e+006 1.001085780627e+006 1.061356031920e+006 1.054381296389e+006 1.170773847818e+006 1.066900849155e+006 1.155834408936e+006 1.160394213163e+006 1.150414770905e+006 1.146735685905e+006 1.171535972176e+006 1.171539415652e+006 1.169043933627e+006 1.171142361207e+006 1.047808201811e+006 1.058673171460e+006 1.000000000000e+006 1.000000000000e+006 1.176843986671e+006 1.169360349422e+006 1.152546279638e+006 1.166785439527e+006 1.091272263169e+006 1.176698454299e+006 1.100149705654e+006 1.000000000098e+006 1.000000000098e+006 1.041630904973e+006 1.122862063937e+006 1.033127992365e+006 1.028586502241e+006 1.025471282857e+006 1.061160843759e+006 1.150482561494e+006 1.153878517190e+006 1.050854558332e+006 1.000000000000e+006 1.000000000000e+006 1.042923923829e+006 1.182919279683e+006 1.182652596178e+006 1.053079638470e+006 1.182554803357e+006 1.177124754272e+006 1.182823682979e+006 1.057087809796e+006 1.002684788348e+006 1.002026466002e+006 1.001937685040e+006 1.003410378672e+006 1.003123692953e+006 1.002026477168e+006 1.003410367230e+006 1.003123694837e+006 1.004098965523e+006 1.005128900798e+006 1.004484230031e+006 1.005128869085e+006 1.004484162942e+006 1.006062000994e+006 1.007441530406e+006 1.006576838611e+006 1.007441363155e+006 1.006577025898e+006 1.008670935154e+006 1.010464714440e+006 1.009342186304e+006 1.010462530737e+006 1.009342236298e+006 1.012034106146e+006 1.014318927647e+006 1.012887674996e+006 1.014303611029e+006 1.012884404205e+006 1.016257686615e+006 1.019178414888e+006 1.017342269621e+006 1.019096860776e+006 1.017309237629e+006 1.002312072716e+006 1.002410919330e+006 1.003486927547e+006 1.003898433439e+006 1.002410963997e+006 1.002312177693e+006 1.003487027742e+006 1.003898451344e+006 1.005229566206e+006 1.005796259696e+006 1.005229516624e+006 1.005796283209e+006 1.007575547320e+006 1.008323972820e+006 1.007575624378e+006 1.008323621441e+006 1.010632804819e+006 1.011599344817e+006 1.010632885724e+006 1.011595184484e+006 1.007064290973e+006 1.008836719941e+006 1.006203150008e+006 1.009946623344e+006 1.005581167390e+006 1.008304532644e+006 1.008838465838e+006 1.007065281234e+006 1.006204089852e+006 1.009948316554e+006 1.005581678422e+006 1.008305159466e+006 1.012235741291e+006 1.013669820071e+006 1.011578416398e+006 1.012239348179e+006 1.013673112471e+006 1.011578758711e+006 1.016486432107e+006 1.018399232032e+006 1.015746667554e+006 1.016494292612e+006 1.018408760255e+006 1.015743885681e+006 1.021672760285e+006 1.024680507783e+006 1.020514288716e+006 1.021684448948e+006 1.024636151510e+006 1.020825762628e+006 1.027851779218e+006 1.031868863763e+006 1.027858917833e+006 1.031437772828e+006 1.014513024606e+006 1.015760374216e+006 1.014511022825e+006 1.015731275727e+006 1.002981457362e+006 1.001586553387e+006 1.002189678104e+006 1.002981650953e+006 1.001586676082e+006 1.002189908679e+006 1.004493574668e+006 1.003646154830e+006 1.004493805377e+006 1.003646523799e+006 1.006598424436e+006 1.006598650408e+006 1.009371272449e+006 1.009371356911e+006 1.012953495051e+006 1.012953031212e+006 1.073595012443e+006 1.085361304512e+006 1.073816303217e+006 1.175902112881e+006 1.017556929308e+006 1.017554299325e+006 1.035070888903e+006 1.035076011931e+006 1.021468507063e+006 1.025371379787e+006 1.023023717232e+006 1.025086065079e+006 1.022755661424e+006 1.019358599436e+006 1.021071617540e+006 1.019338231604e+006 1.020908287277e+006 1.022507900643e+006 1.062787458513e+006 1.023040419446e+006 1.073798076832e+006 1.085353233631e+006 1.039711023295e+006 1.043354033606e+006 1.025332658704e+006 1.030326987311e+006 1.027576880633e+006 1.027426514944e+006 1.027933190574e+006 1.031430859237e+006 1.031296311131e+006 1.032470660859e+006 1.030632657965e+006 1.036229588789e+006 1.034216578025e+006 1.036033108572e+006 1.031611779748e+006 1.036171532133e+006 1.041202169828e+006 1.116809329598e+006 1.068405128889e+006 1.040625944526e+006 1.126935450122e+006 1.175577351948e+006 1.039383610004e+006 1.000000000000e+006 1.000000000000e+006 1.000000000000e+006 1.112562560478e+006 1.119496827205e+006 1.127465056340e+006 1.121756373390e+006 1.113847668323e+006 1.157862577127e+006 1.182868014602e+006 1.126478074520e+006 1.182642686680e+006 1.107438148435e+006 1.052600997593e+006 1.049743057273e+006 1.157549429822e+006 1.139372949194e+006 1.046800582531e+006 1.042199227925e+006 1.116880742018e+006 1.045314180520e+006 1.047117754056e+006 1.076624770168e+006 1.060948616439e+006 1.026129542746e+006 1.112966204576e+006 1.000000000037e+006 1.000000000037e+006 1.148297178242e+006 1.000679025233e+006 1.000679012266e+006 1.035768464306e+006 1.139428933017e+006 1.117778583109e+006 1.034964437846e+006 1.130113750217e+006 1.133379006361e+006 1.170669592287e+006 1.029568824138e+006 1.031005916324e+006 1.030093206816e+006 1.100836908793e+006 1.000000000000e+006 1.000000000000e+006 1.087123914747e+006 1.058409233959e+006 1.000000000000e+006 1.182898846086e+006 1.175148156324e+006 1.182792844546e+006 1.038628658982e+006 1.110568003203e+006 1.000000000000e+006 1.149818859395e+006 1.150111723702e+006 1.131311032682e+006 1.048159046997e+006 1.144977169080e+006 1.001718518411e+006 1.001718727040e+006 1.149880930097e+006 1.177233310559e+006 1.067560032866e+006 1.154920660216e+006 1.144633948005e+006 1.179105677081e+006 1.157503098548e+006 1.163812012194e+006 1.124652874966e+006 1.091965468988e+006 1.097215025790e+006 1.138759851776e+006 1.182797856211e+006 1.142692678685e+006 1.182875379955e+006 1.062804346470e+006 1.057992859805e+006 1.157894462083e+006 1.048617878512e+006 1.000000000000e+006 1.041758644794e+006 1.000000000000e+006 1.035872862055e+006 1.132917155598e+006 1.045628963091e+006 1.162762494990e+006 1.042893997595e+006 1.117823001796e+006 1.025099798433e+006 1.143045588180e+006 1.120499659264e+006 1.182861492231e+006 1.182807918765e+006 1.182927509615e+006 1.182570180361e+006 1.000000000000e+006 1.000000000000e+006 1.000000000000e+006 1.000000000000e+006 1.177728767094e+006 1.000000000000e+006 1.000000000000e+006 1.172530682907e+006 1.178157992142e+006 1.182167082810e+006 1.115692544645e+006 1.000000000000e+006 1.128122667254e+006 1.138190251872e+006 1.000872400310e+006 1.000872484416e+006 1.002735715283e+006 1.002736053963e+006 1.182858683161e+006 1.179078811970e+006 1.004692014415e+006 1.004691423785e+006 1.004193830935e+006 1.004194377529e+006 1.178334552346e+006 1.182143794884e+006 
        </DataArray>
        <DataArray type="Float64" Name="MOLAR_FRACTION" format="ascii">