<?xml version="1.0"?>
<VTKFile type="UnstructuredGrid" version="0.1" byte_order="LittleEndian">
  <UnstructuredGrid>
    <Piece NumberOfPoints="963" NumberOfCells="1758">
      <Points>
        <DataArray type="Float64" NumberOfComponents="3" format="ascii">
          1.600262034769e+002 1.257989505921e+001 0.000000000000e+000
          1.635346199106e+002 2.000000000000e+001 0.000000000000e+000
          1.554515002484e+002 2.000000000000e+001 0.000000000000e+000
          3.459306441575e+000 1.667621982453e+001 0.000000000000e+000
          3.062266634850e+000 1.705413688405e+001 0.000000000000e+000
          2.873380769063e+000 1.650527725632e+001 0.000000000000e+000
          1.514088444034e+000 1.865189448105e+001 0.000000000000e+000
          1.967902677551e+000 1.834103489750e+001 0.000000000000e+000
          2.034564522234e+000 1.890806711991e+001 0.000000000000e+000
          2.478275273162e+000 1.702762299110e+001 0.000000000000e+000
          2.952621433467e+000 1.774357373580e+001 0.000000000000e+000
          2.237893542067e+000 1.782457469610e+001 0.000000000000e+000
          3.313583922780e+000 3.274674552047e+000 0.000000000000e+000
          2.561432712787e+000 3.156040447793e+000 0.000000000000e+000
          3.047531989640e+000 2.714594415171e+000 0.000000000000e+000
          2.750804692284e+000 3.936058190693e+000 0.000000000000e+000
          2.599039179818e+000 2.451529939148e+000 0.000000000000e+000
          3.139686649742e+000 2.186924052088e+000 0.000000000000e+000
          1.919984553221e+000 3.358010194268e+000 0.000000000000e+000
          1.960900304591e+000 2.773319745251e+000 0.000000000000e+000
          1.894565400391e+000 1.733316857565e+001 0.000000000000e+000
          0.000000000000e+000 1.538461538461e+001 0.000000000000e+000
          5.816229249735e-001 1.567919247147e+001 0.000000000000e+000
          0.000000000000e+000 1.589743589743e+001 0.000000000000e+000
          9.766405669483e+001 2.000000000000e+001 0.000000000000e+000
          1.010672711393e+002 1.500000000000e+001 0.000000000000e+000
          1.029329279907e+002 2.000000000000e+001 0.000000000000e+000
          9.588503785413e+001 1.500000000000e+001 0.000000000000e+000
          1.039231647117e+002 1.000000000000e+001 0.000000000000e+000
          9.860830811271e+001 1.000000000000e+001 0.000000000000e+000
          1.010672711397e+002 5.000000000000e+000 0.000000000000e+000
          9.766405669557e+001 0.000000000000e+000 0.000000000000e+000
          1.029329279915e+002 0.000000000000e+000 0.000000000000e+000
          9.588503785449e+001 5.000000000000e+000 0.000000000000e+000
          7.892434178002e+001 2.000000000000e+001 0.000000000000e+000
          8.173808356948e+001 1.500000000000e+001 0.000000000000e+000
          8.328058896910e+001 2.000000000000e+001 0.000000000000e+000
          7.679274808893e+001 1.514423393202e+001 0.000000000000e+000
          7.970503892166e+001 1.000000000000e+001 0.000000000000e+000
          8.409930620613e+001 1.000000000000e+001 0.000000000000e+000
          8.173808356980e+001 5.000000000000e+000 0.000000000000e+000
          7.892434178065e+001 0.000000000000e+000 0.000000000000e+000
          8.328058896976e+001 0.000000000000e+000 0.000000000000e+000
          7.679274808925e+001 4.855766067979e+000 0.000000000000e+000
          1.084583939765e+002 2.000000000000e+001 0.000000000000e+000
          1.122011528880e+002 1.500000000000e+001 0.000000000000e+000
          1.142529496098e+002 2.000000000000e+001 0.000000000000e+000
          1.065018792644e+002 1.500000000000e+001 0.000000000000e+000
          1.153419838410e+002 1.000000000000e+001 0.000000000000e+000
          1.094968549120e+002 1.000000000000e+001 0.000000000000e+000
          1.122011528884e+002 5.000000000000e+000 0.000000000000e+000
          1.084583939773e+002 0.000000000000e+000 0.000000000000e+000
          1.142529496106e+002 0.000000000000e+000 0.000000000000e+000
          1.065018792648e+002 5.000000000000e+000 0.000000000000e+000
          1.181779812237e+002 1.500000000000e+001 0.000000000000e+000
          1.203297004775e+002 2.000000000000e+001 0.000000000000e+000
          1.214717707847e+002 1.000000000000e+001 0.000000000000e+000
          1.181779812242e+002 5.000000000000e+000 0.000000000000e+000
          1.203297004784e+002 0.000000000000e+000 0.000000000000e+000
          7.477039199538e+001 2.000000000000e+001 0.000000000000e+000
          7.551483469771e+001 1.000000000000e+001 0.000000000000e+000
          7.296959467356e+001 1.385646386579e+001 0.000000000000e+000
          7.477039199599e+001 0.000000000000e+000 0.000000000000e+000
          7.296959467379e+001 6.143536134207e+000 0.000000000000e+000
          6.918477198508e+001 1.366665532880e+001 0.000000000000e+000
          6.746477463053e+001 1.000000000000e+001 0.000000000000e+000
          7.151921701478e+001 1.000000000000e+001 0.000000000000e+000
          6.918477198529e+001 6.333344671202e+000 0.000000000000e+000
          9.263986346551e+001 2.000000000000e+001 0.000000000000e+000
          9.094345943471e+001 1.500000000000e+001 0.000000000000e+000
          9.354026529380e+001 1.000000000000e+001 0.000000000000e+000
          9.263986346623e+001 0.000000000000e+000 0.000000000000e+000
          9.094345943506e+001 5.000000000000e+000 0.000000000000e+000
          1.244344522558e+002 1.503312574389e+001 0.000000000000e+000
          1.267023895482e+002 2.000000000000e+001 0.000000000000e+000
          1.285510028831e+002 1.020485663255e+001 0.000000000000e+000
          1.244344522563e+002 5.033125743893e+000 0.000000000000e+000
          1.267023895491e+002 0.000000000000e+000 0.000000000000e+000
          8.623136018348e+001 1.500000000000e+001 0.000000000000e+000
          8.784898578901e+001 2.000000000000e+001 0.000000000000e+000
          8.870757443665e+001 1.000000000000e+001 0.000000000000e+000
          8.623136018382e+001 5.000000000000e+000 0.000000000000e+000
          8.784898578969e+001 0.000000000000e+000 0.000000000000e+000
          4.872472752737e+000 0.000000000000e+000 0.000000000000e+000
          4.204479229380e+000 6.412840757122e-001 0.000000000000e+000
          4.157376851380e+000 0.000000000000e+000 0.000000000000e+000
          5.192892237051e+000 7.280355562789e-001 0.000000000000e+000
          1.306630304579e+000 6.212843344151e-001 0.000000000000e+000
          1.050228457081e+000 0.000000000000e+000 0.000000000000e+000
          1.614006202528e+000 0.000000000000e+000 0.000000000000e+000
          1.266763055794e+001 1.554696422866e+001 0.000000000000e+000
          1.263589100638e+001 1.657720348306e+001 0.000000000000e+000
          1.174268578662e+001 1.633018318031e+001 0.000000000000e+000
          6.588835695415e+000 7.505681085529e+000 0.000000000000e+000
          6.456871838389e+000 6.658671683861e+000 0.000000000000e+000
          7.208099140752e+000 7.038822846307e+000 0.000000000000e+000
          4.412623338166e+000 9.138856431549e+000 0.000000000000e+000
          4.024185797397e+000 8.708923235630e+000 0.000000000000e+000
          4.601447447338e+000 8.507292699647e+000 0.000000000000e+000
          5.325995059827e-001 6.308307298123e+000 0.000000000000e+000
          0.000000000000e+000 6.666666666655e+000 0.000000000000e+000
          0.000000000000e+000 6.153846153835e+000 0.000000000000e+000
          3.986461521768e+000 8.146114708182e+000 0.000000000000e+000
          2.411603373059e+000 6.510912162016e+000 0.000000000000e+000
          1.807525763324e+000 6.938080373464e+000 0.000000000000e+000
          1.686779352680e+000 6.178928843543e+000 0.000000000000e+000
          2.510760620997e+000 7.229076682239e+000 0.000000000000e+000
          3.166991983438e+000 6.906135870389e+000 0.000000000000e+000
          3.452788915829e+000 6.276851216781e+000 0.000000000000e+000
          3.340122000742e+000 5.656365440432e+000 0.000000000000e+000
          4.047936562877e+000 5.873561587395e+000 0.000000000000e+000
          1.802463974828e+000 1.292744708026e+001 0.000000000000e+000
          1.383967161336e+000 1.330299552906e+001 0.000000000000e+000
          1.329690820161e+000 1.266495373033e+001 0.000000000000e+000
          2.267922292389e+000 1.431116835808e+001 0.000000000000e+000
          2.854613987538e+000 1.466581611369e+001 0.000000000000e+000
          2.339869278674e+000 1.493776402241e+001 0.000000000000e+000
          4.690956878046e+000 3.115726773737e+000 0.000000000000e+000
          4.014773718330e+000 2.850429494150e+000 0.000000000000e+000
          4.643493383296e+000 2.293565471327e+000 0.000000000000e+000
          5.186083944243e+000 1.661927139510e+000 0.000000000000e+000
          5.452965511439e+000 2.679881546544e+000 0.000000000000e+000
          5.360460104304e+000 3.539902157655e+000 0.000000000000e+000
          6.197986304192e+000 3.115706366113e+000 0.000000000000e+000
          7.929356606585e-001 1.634705420870e+001 0.000000000000e+000
          1.222819867503e+000 1.599517159419e+001 0.000000000000e+000
          1.215723647926e+000 1.546209040954e+001 0.000000000000e+000
          1.770601276021e+000 1.521217632514e+001 0.000000000000e+000
          1.242830150061e+000 1.493919370237e+001 0.000000000000e+000
          1.166444124506e+000 4.610115997312e+000 0.000000000000e+000
          1.851620547934e+000 4.486892013458e+000 0.000000000000e+000
          1.494152702314e+000 5.145235789232e+000 0.000000000000e+000
          1.353088107040e+000 4.090803091641e+000 0.000000000000e+000
          3.802567455935e+000 5.084697985980e+000 0.000000000000e+000
          1.014840185783e+000 5.494768572296e+000 0.000000000000e+000
          8.831064584820e-001 5.109311190608e+000 0.000000000000e+000
          1.727903958959e+000 1.618384478933e+001 0.000000000000e+000
          1.343261525342e+000 1.651800241408e+001 0.000000000000e+000
          3.308120627291e+000 8.593311644828e+000 0.000000000000e+000
[...]
      <PointData Scalars="LIQUID_PRESSURE">
        <DataArray type="Float64" Name="LIQUID_PRESSURE" format="ascii">
          1.000000000000e+006 1.000000000000e+006 1.000000000000e+006 1.217524475270e+006 1.220084832753e+006 1.221207104451e+006 1.228430439493e+006 1.225845627943e+006 1.225500102863e+006 1.223275001954e+006 1.220773008492e+006 1.224482915588e+006 1.218559273358e+006 1.222874522017e+006 1.220178585365e+006 1.221898972090e+006 1.222652975288e+006 1.219637660928e+006 1.226104566708e+006 1.225871676371e+006 1.226230813410e+006 1.225251381485e+006 1.231641234408e+006 1.225235195541e+006 1.000000000005e+006 1.000000000001e+006 1.000000000000e+006 1.000000000009e+006 1.000000000000e+006 1.000000000003e+006 1.000000000001e+006 1.000000000005e+006 1.000000000000e+006 1.000000000009e+006 1.000000011591e+006 1.000000003657e+006 1.000000002237e+006 1.000000024480e+006 1.000000007999e+006 1.000000001444e+006 1.000000003657e+006 1.000000011590e+006 1.000000002237e+006 1.000000024479e+006 1.000000000000e+006 1.000000000000e+006 1.000000000000e+006 1.000000000000e+006 1.000000000000e+006 1.000000000000e+006 1.000000000000e+006 1.000000000000e+006 1.000000000000e+006 1.000000000000e+006 1.000000000000e+006 1.000000000000e+006 1.000000000000e+006 1.000000000000e+006 1.000000000000e+006 1.000000052791e+006 1.000000039024e+006 1.000000097293e+006 1.000000052788e+006 1.000000097290e+006 1.000000363699e+006 1.000000637670e+006 1.000000160419e+006 1.000000363690e+006 1.000000000049e+006 1.000000000084e+006 1.000000000027e+006 1.000000000049e+006 1.000000000084e+006 1.000000000000e+006 1.000000000000e+006 1.000000000000e+006 1.000000000000e+006 1.000000000000e+006 1.000000000610e+006 1.000000000365e+006 1.000000000218e+006 1.000000000610e+006 1.000000000365e+006 1.205300385908e+006 1.211676169602e+006 1.211971488890e+006 1.202056064167e+006 1.229733661158e+006 1.231246885873e+006 1.227828072810e+006 1.106333025811e+006 1.106752525390e+006 1.117843621740e+006 1.186050209477e+006 1.187684898290e+006 1.178293794601e+006 1.209734402219e+006 1.213149059651e+006 1.207980270156e+006 1.231216886599e+006 1.225299363950e+006 1.225178652881e+006 1.213511618119e+006 1.223589721520e+006 1.226704110484e+006 1.227410099973e+006 1.223106601029e+006 1.219497719834e+006 1.217542962023e+006 1.218361731000e+006 1.212995855563e+006 1.226750612444e+006 1.229209200855e+006 1.229531093235e+006 1.224318959417e+006 1.221302311798e+006 1.223964018548e+006 1.207108537968e+006 1.213242003816e+006 1.207562544139e+006 1.202112863636e+006 1.199247006763e+006 1.200245751698e+006 1.190776964205e+006 1.231874424073e+006 1.230296625550e+006 1.230296823251e+006 1.226912363395e+006 1.230021643102e+006 1.230447982951e+006 1.226462119067e+006 1.228553985757e+006 1.229384518337e+006 1.214960242202e+006 1.231241076962e+006 1.231861498280e+006 1.227175006121e+006 1.229456213194e+006 1.218558525248e+006 1.222261823767e+006 1.219699116357e+006 1.231717087635e+006 1.231860167117e+006 1.229756776772e+006 1.232040628861e+006 1.231438969326e+006 1.229022984302e+006 1.220929276830e+006 1.231853365211e+006 1.221019915417e+006 1.222806445313e+006 1.229404479022e+006 1.225188503067e+006 1.229835633031e+006 1.227328925873e+006 1.224932314295e+006 1.212871182987e+006 1.205298435064e+006 1.202339570956e+006 1.197380340162e+006 1.193122873953e+006 1.228756663010e+006 1.228989646342e+006 1.231480145679e+006 1.231890020647e+006 1.227200501417e+006 1.225186072333e+006 1.229620891504e+006 1.225193618142e+006 1.224157799171e+006 1.215040468786e+006 1.211679995017e+006 1.228782679451e+006 1.230915962260e+006 1.222330726663e+006 1.219538990550e+006 1.221765510494e+006 1.229908723568e+006 1.225123268013e+006 1.231216151252e+006 1.226399324016e+006 1.226665626865e+006 1.220459662392e+006 1.223334558667e+006 1.231882701772e+006 1.231761222922e+006 1.219486357463e+006 1.216989571137e+006 1.226957946241e+006 1.224365969017e+006 1.191717621776e+006 1.182406813021e+006 1.224566180811e+006 1.224267870019e+006 1.231742725982e+006 1.224300214414e+006 1.228549119264e+006 1.222947406054e+006 1.216736669437e+006 1.216881333361e+006 1.211916218907e+006 1.225761167958e+006 1.227333760211e+006 1.230175819605e+006 1.231536717514e+006 1.230197135676e+006 1.228055572360e+006 1.219070251295e+006 1.219709202062e+006 1.229008188809e+006 1.231010500924e+006 1.228105637077e+006 1.225197271674e+006 1.000001279062e+006 1.000001279039e+006 1.222307913591e+006 1.224444857742e+006 1.231799624554e+006 1.164776919896e+006 1.172567851249e+006 1.158569302104e+006 1.215544137253e+006 1.209862975681e+006 1.231282134324e+006 1.228580284127e+006 1.231553506456e+006 1.226536049300e+006 1.223164564503e+006 1.231553766178e+006 1.225951820554e+006 1.230801722662e+006 1.230489930648e+006 1.222148980377e+006 1.217035009603e+006 1.231719405680e+006 1.216021793758e+006 1.226502346134e+006 1.226791408665e+006 1.218282360976e+006 1.224482985971e+006 1.227975945696e+006 1.231508388143e+006 1.231314022194e+006 1.225341565863e+006 1.225311679026e+006 1.225214900389e+006 1.225260945904e+006 1.230614699082e+006 1.225210737876e+006 1.230490796069e+006 1.231341730186e+006 1.231782203286e+006 1.225306197299e+006 1.228816799702e+006 1.225184169311e+006 1.225189789555e+006 1.230776249422e+006 1.225139196773e+006 1.231042570344e+006 1.225168685586e+006 1.229925033299e+006 1.225163107016e+006 1.225135791441e+006 1.000006910596e+006 1.000002815506e+006 1.000002456555e+006 1.000010007557e+006 1.000002334501e+006 1.000006629937e+006 1.000002815401e+006 1.000006910345e+006 1.000002456457e+006 1.000010007231e+006 1.000002334436e+006 1.000006629764e+006 1.000041766706e+006 1.000025100958e+006 1.000017603535e+006 1.000057682975e+006 1.000016952679e+006 1.000040357976e+006 1.000025100219e+006 1.000041765460e+006 1.000017602951e+006 1.000057681449e+006 1.000016952279e+006 1.000040357120e+006 1.002928796972e+006 1.002239183308e+006 1.001858294095e+006 1.003471951812e+006 1.001821226269e+006 1.002875840026e+006 1.002239157411e+006 1.002928763477e+006 1.001858268962e+006 1.003471918529e+006 1.001821209276e+006 1.002875818166e+006 1.001129915949e+006 1.000819501828e+006 1.000655469603e+006 1.001385663569e+006 1.000639883215e+006 1.001105271782e+006 1.000819488773e+006 1.001129898090e+006 1.000655457631e+006 1.001385644615e+006 1.000639874952e+006 1.001105259526e+006 1.009225729970e+006 1.007733240154e+006 1.006511240998e+006 1.010633841303e+006 1.007733188385e+006 1.009225666538e+006 1.006511189337e+006 1.010633783031e+006 1.000361021762e+006 1.000245538533e+006 1.000187790183e+006 1.000461079988e+006 1.000182480037e+006 1.000351663458e+006 1.000245533408e+006 1.000361014218e+006 1.000187785732e+006 1.000461071538e+006 1.000182476963e+006 1.000351658245e+006 1.000091706963e+006 1.000123061971e+006 1.000088876169e+006 1.000091704516e+006 1.000123059069e+006 1.000088874482e+006 1.004442768581e+006 1.005561710606e+006 1.004371099457e+006 1.004442726016e+006 1.005561669481e+006 1.004371073874e+006 1.006452658759e+006 1.006452633091e+006 1.000066200539e+006 1.000108223662e+006 1.000050101233e+006 1.000139502590e+006 1.000066199830e+006 1.000139501260e+006 1.001509912404e+006 1.002058788771e+006 1.001265274083e+006 1.002421095896e+006 1.001509904377e+006 1.002421085456e+006 1.000029200378e+006 1.000021490097e+006 1.000029200029e+006 1.008349591470e+006 1.009174015729e+006 1.009174033337e+006 1.008349598119e+006 1.000218331150e+006 1.000275225898e+006 1.000275223583e+006 1.000900681943e+006 1.000742452912e+006 1.000900676254e+006 1.000511540342e+006 1.000414058716e+006 1.000511536587e+006 1.005548266829e+006 1.005548280070e+006 1.003211336342e+006 1.003728935742e+006 1.003728923572e+006 1.000011839956e+006 1.000008439552e+006 1.000011839800e+006 1.005072871959e+006 1.000003997465e+006 1.000002093463e+006 1.000003997409e+006 1.000000687804e+006 1.000000929974e+006 1.000000687836e+006 1.000000930006e+006 1.175042481784e+006 1.166608188964e+006 1.177957424973e+006 1.162361759765e+006 1.221493814595e+006 1.222413189607e+006 1.224642233315e+006 1.221467533658e+006 1.224644567558e+006 1.205549669916e+006 1.203646114905e+006 1.227825126832e+006 1.231168451237e+006 1.195546878234e+006 1.000000000000e+006 1.000000000000e+006 1.000000000000e+006 1.188255195036e+006 1.177967300071e+006 1.181450794560e+006 1.186588827037e+006 1.213987039816e+006 1.222901513050e+006 1.230935443216e+006 1.213765517101e+006 1.228003412047e+006 1.223901226206e+006 1.227106663924e+006 1.175108939212e+006 1.174546398875e+006 1.163015631443e+006 1.224058371744e+006 1.220512255885e+006 1.225363603372e+006 1.231016460942e+006 1.225134829219e+006 1.166583859793e+006 1.175564851804e+006 1.175591905921e+006 1.181101456520e+006 1.168808125557e+006 1.187643864977e+006 1.162365359024e+006 1.149714015868e+006 1.156327545931e+006 1.162356508477e+006 1.231726332386e+006 1.213462610371e+006 1.215074957464e+006 1.218544560533e+006 1.162683072906e+006 1.156149713615e+006 1.149019919834e+006 1.143637724368e+006 1.216954181811e+006 1.221413089585e+006 1.121890764479e+006 1.119383311397e+006 1.131252983693e+006 1.180902091471e+006 1.186996356379e+006 1.106617198474e+006 1.122167865845e+006 1.113931506030e+006 1.210457209598e+006 1.197091787344e+006 1.191717143965e+006 1.092238277981e+006 1.093699343371e+006 1.227505682610e+006 1.230203650494e+006 1.174956411182e+006 1.186242829601e+006 1.170738413336e+006 1.174255506152e+006 1.162462347777e+006 1.161324278249e+006 1.196115380635e+006 1.137744171958e+006 1.143734462752e+006 1.119546472666e+006 1.110585464586e+006 1.104689089765e+006 1.150043577588e+006 1.101235112284e+006 1.111486311903e+006 1.114615428270e+006 1.096414731783e+006 1.211190550767e+006 1.213642140058e+006 1.137134293878e+006 1.146994143256e+006 1.200551406209e+006 1.218681333269e+006 1.205571262063e+006 1.207556527489e+006 1.231124880576e+006 1.231648408150e+006 1.222342228221e+006 1.224930967057e+006 1.191379997161e+006 1.196255263805e+006 1.160982476289e+006 1.153347049168e+006 1.148374855420e+006 1.167247589049e+006 1.155709587145e+006 1.148133308191e+006 1.164411012196e+006 1.192466904572e+006 1.192778322765e+006 1.198415058881e+006 1.168910858331e+006 1.205127062182e+006 1.184558409507e+006 1.204082839585e+006 1.200050784629e+006 1.135713499268e+006 1.123229900003e+006 1.131170140890e+006 1.210442747253e+006 1.215928223257e+006 1.200710053689e+006 1.157519853612e+006 1.207194043743e+006 1.126585621186e+006 1.132581226475e+006 1.231439496222e+006 1.231039530059e+006 1.208961694031e+006 1.203954328863e+006 1.209318966787e+006 1.184472804308e+006 1.206864057514e+006 1.169049652093e+006 1.158101874670e+006 1.225879276287e+006 1.217758617903e+006 1.220086823419e+006 1.213105860577e+006 1.178655901768e+006 1.174831607971e+006 1.177883511532e+006 1.184937629140e+006 1.203891773614e+006 1.227329071740e+006 1.223842505742e+006 1.141519399396e+006 1.148070115453e+006 1.150868708257e+006 1.138226969423e+006 1.192941096451e+006 1.124155119520e+006 1.109542936832e+006 1.114029935451e+006 1.194724581601e+006 1.210459019964e+006 1.224829947770e+006 1.172572170205e+006 1.141365775336e+006 1.136179077081e+006 1.128518063320e+006 1.148394547113e+006 1.148289536550e+006 1.225118647242e+006 1.226817615037e+006 1.221678524738e+006 1.131739848762e+006 1.125756494680e+006 1.183257849820e+006 1.190593369913e+006 1.191262137275e+006 1.135409835192e+006 1.147547464656e+006 1.143544866465e+006 1.225169655308e+006 1.231044358468e+006 1.229784637825e+006 1.213958714535e+006 1.215603375133e+006 1.140382000132e+006 1.155259380029e+006 1.198778871139e+006 1.230914029180e+006 1.231791387698e+006 1.159002238106e+006 1.149390595747e+006 1.152855736358e+006 1.221901825640e+006 1.178347912246e+006 1.207959472499e+006 1.137525675200e+006 1.198140959764e+006 1.223436877768e+006 1.221136941267e+006 1.225596008075e+006 1.167859147596e+006 1.125328258111e+006 1.221342521822e+006 1.218467088511e+006 1.157757338683e+006 1.116755391513e+006 1.127878250607e+006 1.219918674785e+006 1.231178261145e+006 1.230045727459e+006 1.143437636364e+006 1.137857904392e+006 1.130171787599e+006 1.000000000000e+006 1.000000000000e+006 1.000000000000e+006 1.166047068889e+006 1.230769157558e+006 1.223254085824e+006 1.222494650590e+006 1.220249360127e+006 1.208749387116e+006 1.166395704528e+006 1.217358677944e+006 1.207777738745e+006 1.203683932064e+006 1.000000266692e+006 1.000000266703e+006 1.230953964846e+006 1.225252593465e+006 1.227775682742e+006 1.203775232894e+006 1.150744029325e+006 1.196975510243e+006 1.156638312314e+006 1.231911564260e+006 1.181039417276e+006 1.228612203221e+006 1.132775804110e+006 1.134986298141e+006 1.175508234782e+006 1.000000000000e+006 1.000000000000e+006 1.213115147454e+006 1.197831054241e+006 1.200662205962e+006 1.191990765105e+006 1.169325869724e+006 1.231590174302e+006 1.011990089824e+006 1.011660073781e+006 1.011990100525e+006 1.011660090482e+006 1.217544365960e+006 1.232016301279e+006 1.170219857658e+006 1.231328254467e+006 1.010833155213e+006 1.009536077211e+006 1.007808908257e+006 1.009536074213e+006 1.126205566023e+006 1.117014707940e+006 1.228899124723e+006 1.133212309341e+006 1.216034177825e+006 1.219083701227e+006 1.212223398988e+006 1.209502016540e+006 1.231046675637e+006 1.231601309390e+006 1.225124738643e+006 1.230383476846e+006 1.107825318196e+006 1.122795389322e+006 1.000000000000e+006 1.000000000000e+006 1.230255863371e+006 1.225566112452e+006 1.213739661370e+006 1.223221375499e+006 1.160580392350e+006 1.230402254079e+006 1.169523069697e+006 1.000000205318e+006 1.000000205309e+006 1.098668885364e+006 1.190283632796e+006 1.085055789457e+006 1.077206874041e+006 1.071589844286e+006 1.126033267508e+006 1.212278219925e+006 1.214691305945e+006 1.112151903624e+006 1.000000000000e+006 1.000000000000e+006 1.100588139037e+006 1.225347545292e+006 1.225239885092e+006 1.115268012568e+006 1.225117437865e+006 1.230150963989e+006 1.225151515082e+006 1.120661750309e+006 1.016813224670e+006 1.014119477615e+006 1.013669196914e+006 1.019584964137e+006 1.018505460900e+006 1.014119451780e+006 1.019584904874e+006 1.018505361529e+006 1.022003278678e+006 1.025374369771e+006 1.023289029567e+006 1.025374359222e+006 1.023288800093e+006 1.028232301081e+006 1.032193475411e+006 1.029740497200e+006 1.032192703905e+006 1.029740828655e+006 1.035518050835e+006 1.040096805626e+006 1.037263144106e+006 1.040090665851e+006 1.037262665499e+006 1.043891104846e+006 1.049135684568e+006 1.045884628985e+006 1.049100098938e+006 1.045875692365e+006 1.053369116926e+006 1.059449819270e+006 1.055669043683e+006 1.059283137652e+006 1.055596507904e+006 1.015281567388e+006 1.015730578204e+006 1.019852146681e+006 1.021314793242e+006 1.015730513796e+006 1.015281530885e+006 1.019852020918e+006 1.021314632595e+006 1.025683401607e+006 1.027430489286e+006 1.025683699862e+006 1.027430627424e+006 1.032555660725e+006 1.034592382477e+006 1.032556207961e+006 1.034591242187e+006 1.040503274028e+006 1.042853915835e+006 1.040503690339e+006 1.042843410801e+006 1.031126716250e+006 1.035941122364e+006 1.028624279033e+006 1.038795817465e+006 1.026776014654e+006 1.034540007512e+006 1.035942303019e+006 1.031127175341e+006 1.028624767362e+006 1.038796761663e+006 1.026776094588e+006 1.034539950819e+006 1.044358058012e+006 1.047671412537e+006 1.042798451020e+006 1.044361091434e+006 1.047673605336e+006 1.042797601131e+006 1.053855278839e+006 1.057866384596e+006 1.052259014797e+006 1.053862823153e+006 1.057874721301e+006 1.052253169428e+006 1.064399206654e+006 1.070144971064e+006 1.062110488582e+006 1.064410148700e+006 1.070042576200e+006 1.062723292629e+006 1.075903442602e+006 1.082902882193e+006 1.075908381144e+006 1.082164928845e+006 1.049558729428e+006 1.052299011620e+006 1.049555045170e+006 1.052235259619e+006 1.017989142911e+006 1.012110658843e+006 1.014799791320e+006 1.017989124402e+006 1.012110680903e+006 1.014799860105e+006 1.023318516424e+006 1.020437907130e+006 1.023318418743e+006 1.020437997296e+006 1.029793978010e+006 1.029793722138e+006 1.037332311493e+006 1.037331760499e+006 1.046029540056e+006 1.046028447422e+006 1.141263082575e+006 1.154364908833e+006 1.141441503628e+006 1.230837799146e+006 1.056105784057e+006 1.056103022412e+006 1.088244506910e+006 1.088245148346e+006 1.063998315127e+006 1.071391756169e+006 1.067015542008e+006 1.070870548064e+006 1.066494359247e+006 1.059805915585e+006 1.063225114032e+006 1.059770205611e+006 1.062903076822e+006 1.066003018203e+006 1.128088125166e+006 1.067030213192e+006 1.141438064668e+006 1.154364069241e+006 1.095679104390e+006 1.101234167824e+006 1.071314057506e+006 1.080278345020e+006 1.075411625735e+006 1.075128545638e+006 1.076044575983e+006 1.082114198542e+006 1.081958723542e+006 1.083913572995e+006 1.080788693777e+006 1.090136431328e+006 1.086802872304e+006 1.089829088663e+006 1.082426163160e+006 1.090051477700e+006 1.097989892937e+006 1.185030897443e+006 1.135046656908e+006 1.097098540442e+006 1.193761397798e+006 1.231076650220e+006 1.095146280678e+006 1.000000000000e+006 1.000000000000e+006 1.000000000000e+006 1.181206250004e+006 1.187391457221e+006 1.194195261537e+006 1.189345424019e+006 1.182379779970e+006 1.217409611286e+006 1.225291698757e+006 1.193369266974e+006 1.225253130694e+006 1.176480916803e+006 1.114588584317e+006 1.110590579462e+006 1.217200762037e+006 1.203846025267e+006 1.106356670855e+006 1.099513630748e+006 1.185073155230e+006 1.104128717822e+006 1.106813866192e+006 1.144668757088e+006 1.125702733252e+006 1.072761992005e+006 1.181568448349e+006 1.000000098062e+006 1.000000098066e+006 1.210670899082e+006 1.007100332737e+006 1.007100328478e+006 1.089326397334e+006 1.203912128695e+006 1.185868727026e+006 1.088043585852e+006 1.196401774045e+006 1.199076566502e+006 1.228390275112e+006 1.078900250470e+006 1.081386282796e+006 1.079835991701e+006 1.170200861945e+006 1.000000000000e+006 1.000000000000e+006 1.156264410877e+006 1.122454958434e+006 1.000000000000e+006 1.225069105053e+006 1.231371943545e+006 1.225256801636e+006 1.093975720073e+006 1.179380854123e+006 1.000000000000e+006 1.211811717505e+006 1.211985955348e+006 1.197375032238e+006 1.108317106371e+006 1.208186975147e+006 1.012702064127e+006 1.012702147774e+006 1.211844577666e+006 1.230025338392e+006 1.134008954911e+006 1.215414878683e+006 1.207908212921e+006 1.228492473569e+006 1.217169475121e+006 1.221233860991e+006 1.191824234053e+006 1.161275352138e+006 1.166613433970e+006 1.203390334737e+006 1.225303908190e+006 1.206444057041e+006 1.225385954234e+006 1.128087533287e+006 1.121840911285e+006 1.217443569602e+006 1.108956386480e+006 1.000000000000e+006 1.098822339548e+006 1.000000000000e+006 1.089524879112e+006 1.198678502212e+006 1.104640524365e+006 1.220565844182e+006 1.100505979791e+006 1.185896120614e+006 1.070866309831e+006 1.206688384758e+006 1.188246530950e+006 1.225073436669e+006 1.225198185072e+006 1.225427983573e+006 1.225204421426e+006 1.000000000000e+006 1.000000000000e+006 1.000000000000e+006 1.000000000000e+006 1.229646676087e+006 1.000000000000e+006 1.000000000000e+006 1.231779599620e+006 1.229315709201e+006 1.225494697722e+006 1.183999754231e+006 1.000000000000e+006 1.194755128526e+006 1.202914661461e+006 1.008320592832e+006 1.008320631643e+006 1.017030712463e+006 1.017030840619e+006 1.225309728174e+006 1.228520679274e+006 1.023961777859e+006 1.023961547137e+006 1.022316179402e+006 1.022316403846e+006 1.229260930015e+006 1.225498034334e+006 
        </DataArray>
        <DataArray type="Float64" Name="MOLAR_FRACTION" format="ascii">