<?xml version="1.0"?>
<VTKFile type="UnstructuredGrid" version="0.1" byte_order="LittleEndian">
  <UnstructuredGrid>
    <Piece NumberOfPoints="963" NumberOfCells="1758">
      <Points>
        <DataArray type="Float64" NumberOfComponents="3" format="ascii">
          1.600262034769e+002 1.257989505921e+001 0.000000000000e+000
          1.635346199106e+002 2.000000000000e+001 0.000000000000e+000
          1.554515002484e+002 2.000000000000e+001 0.000000000000e+000
          3.459306441575e+000 1.667621982453e+001 0.000000000000e+000
          3.062266634850e+000 1.705413688405e+001 0.000000000000e+000
          2.873380769063e+000 1.650527725632e+001 0.000000000000e+000
          1.514088444034e+000 1.865189448105e+001 0.000000000000e+000
          1.967902677551e+000 1.834103489750e+001 0.000000000000e+000
          2.034564522234e+000 1.890806711991e+001 0.000000000000e+000
          2.478275273162e+000 1.702762299110e+001 0.000000000000e+000
          2.952621433467e+000 1.774357373580e+001 0.000000000000e+000
          2.237893542067e+000 1.782457469610e+001 0.000000000000e+000
          3.313583922780e+000 3.274674552047e+000 0.000000000000e+000
          2.561432712787e+000 3.156040447793e+000 0.000000000000e+000
          3.047531989640e+000 2.714594415171e+000 0.000000000000e+000
          2.750804692284e+000 3.936058190693e+000 0.000000000000e+000
          2.599039179818e+000 2.451529939148e+000 0.000000000000e+000
          3.139686649742e+000 2.186924052088e+000 0.000000000000e+000
          1.919984553221e+000 3.358010194268e+000 0.000000000000e+000
          1.960900304591e+000 2.773319745251e+000 0.000000000000e+000
          1.894565400391e+000 1.733316857565e+001 0.000000000000e+000
          0.000000000000e+000 1.538461538461e+001 0.000000000000e+000
          5.816229249735e-001 1.567919247147e+001 0.000000000000e+000
          0.000000000000e+000 1.589743589743e+001 0.000000000000e+000
          9.766405669483e+001 2.000000000000e+001 0.000000000000e+000
          1.010672711393e+002 1.500000000000e+001 0.000000000000e+000
          1.029329279907e+002 2.000000000000e+001 0.000000000000e+000
          9.588503785413e+001 1.500000000000e+001 0.000000000000e+000
          1.039231647117e+002 1.000000000000e+001 0.000000000000e+000
          9.860830811271e+001 1.000000000000e+001 0.000000000000e+000
          1.010672711397e+002 5.000000000000e+000 0.000000000000e+000
          9.766405669557e+001 0.000000000000e+000 0.000000000000e+000
          1.029329279915e+002 0.000000000000e+000 0.000000000000e+000
          9.588503785449e+001 5.000000000000e+000 0.000000000000e+000
          7.892434178002e+001 2.000000000000e+001 0.000000000000e+000
          8.173808356948e+001 1.500000000000e+001 0.000000000000e+000
          8.328058896910e+001 2.000000000000e+001 0.000000000000e+000
          7.679274808893e+001 1.514423393202e+001 0.000000000000e+000
          7.970503892166e+001 1.000000000000e+001 0.000000000000e+000
          8.409930620613e+001 1.000000000000e+001 0.000000000000e+000
          8.173808356980e+001 5.000000000000e+000 0.000000000000e+000
          7.892434178065e+001 0.000000000000e+000 0.000000000000e+000
          8.328058896976e+001 0.000000000000e+000 0.000000000000e+000
          7.679274808925e+001 4.855766067979e+000 0.000000000000e+000
          1.084583939765e+002 2.000000000000e+001 0.000000000000e+000
          1.122011528880e+002 1.500000000000e+001 0.000000000000e+000
          1.142529496098e+002 2.000000000000e+001 0.000000000000e+000
          1.065018792644e+002 1.500000000000e+001 0.000000000000e+000
          1.153419838410e+002 1.000000000000e+001 0.000000000000e+000
          1.094968549120e+002 1.000000000000e+001 0.000000000000e+000
          1.122011528884e+002 5.000000000000e+000 0.000000000000e+000
          1.084583939773e+002 0.000000000000e+000 0.000000000000e+000
          1.142529496106e+002 0.000000000000e+000 0.000000000000e+000
          1.065018792648e+002 5.000000000000e+000 0.000000000000e+000
          1.181779812237e+002 1.500000000000e+001 0.000000000000e+000
          1.203297004775e+002 2.000000000000e+001 0.000000000000e+000
          1.214717707847e+002 1.000000000000e+001 0.000000000000e+000
          1.181779812242e+002 5.000000000000e+000 0.000000000000e+000
          1.203297004784e+002 0.000000000000e+000 0.000000000000e+000
          7.477039199538e+001 2.000000000000e+001 0.000000000000e+000
          7.551483469771e+001 1.000000000000e+001 0.000000000000e+000
          7.296959467356e+001 1.385646386579e+001 0.000000000000e+000
          7.477039199599e+001 0.000000000000e+000 0.000000000000e+000
          7.296959467379e+001 6.143536134207e+000 0.000000000000e+000
          6.918477198508e+001 1.366665532880e+001 0.000000000000e+000
          6.746477463053e+001 1.000000000000e+001 0.000000000000e+000
          7.151921701478e+001 1.000000000000e+001 0.000000000000e+000
          6.918477198529e+001 6.333344671202e+000 0.000000000000e+000
          9.263986346551e+001 2.000000000000e+001 0.000000000000e+000
          9.094345943471e+001 1.500000000000e+001 0.000000000000e+000
          9.354026529380e+001 1.000000000000e+001 0.000000000000e+000
          9.263986346623e+001 0.000000000000e+000 0.000000000000e+000
          9.094345943506e+001 5.000000000000e+000 0.000000000000e+000
          1.244344522558e+002 1.503312574389e+001 0.000000000000e+000
          1.267023895482e+002 2.000000000000e+001 0.000000000000e+000
          1.285510028831e+002 1.020485663255e+001 0.000000000000e+000
          1.244344522563e+002 5.033125743893e+000 0.000000000000e+000
          1.267023895491e+002 0.000000000000e+000 0.000000000000e+000
          8.623136018348e+001 1.500000000000e+001 0.000000000000e+000
          8.784898578901e+001 2.000000000000e+001 0.000000000000e+000
          8.870757443665e+001 1.000000000000e+001 0.000000000000e+000
          8.623136018382e+001 5.000000000000e+000 0.000000000000e+000
          8.784898578969e+001 0.000000000000e+000 0.000000000000e+000
          4.872472752737e+000 0.000000000000e+000 0.000000000000e+000
          4.204479229380e+000 6.412840757122e-001 0.000000000000e+000
          4.157376851380e+000 0.000000000000e+000 0.000000000000e+000
          5.192892237051e+000 7.280355562789e-001 0.000000000000e+000
          1.306630304579e+000 6.212843344151e-001 0.000000000000e+000
          1.050228457081e+000 0.000000000000e+000 0.000000000000e+000
          1.614006202528e+000 0.000000000000e+000 0.000000000000e+000
          1.266763055794e+001 1.554696422866e+001 0.000000000000e+000
          1.263589100638e+001 1.657720348306e+001 0.000000000000e+000
          1.174268578662e+001 1.633018318031e+001 0.000000000000e+000
          6.588835695415e+000 7.505681085529e+000 0.000000000000e+000
          6.456871838389e+000 6.658671683861e+000 0.000000000000e+000
          7.208099140752e+000 7.038822846307e+000 0.000000000000e+000
          4.412623338166e+000 9.138856431549e+000 0.000000000000e+000
          4.024185797397e+000 8.708923235630e+000 0.000000000000e+000
          4.601447447338e+000 8.507292699647e+000 0.000000000000e+000
          5.325995059827e-001 6.308307298123e+000 0.000000000000e+000
          0.000000000000e+000 6.666666666655e+000 0.000000000000e+000
          0.000000000000e+000 6.153846153835e+000 0.000000000000e+000
          3.986461521768e+000 8.146114708182e+000 0.000000000000e+000
          2.411603373059e+000 6.510912162016e+000 0.000000000000e+000
          1.807525763324e+000 6.938080373464e+000 0.000000000000e+000
          1.686779352680e+000 6.178928843543e+000 0.000000000000e+000
          2.510760620997e+000 7.229076682239e+000 0.000000000000e+000
          3.166991983438e+000 6.906135870389e+000 0.000000000000e+000
          3.452788915829e+000 6.276851216781e+000 0.000000000000e+000
          3.340122000742e+000 5.656365440432e+000 0.000000000000e+000
          4.047936562877e+000 5.873561587395e+000 0.000000000000e+000
          1.802463974828e+000 1.292744708026e+001 0.000000000000e+000
          1.383967161336e+000 1.330299552906e+001 0.000000000000e+000
          1.329690820161e+000 1.266495373033e+001 0.000000000000e+000
          2.267922292389e+000 1.431116835808e+001 0.000000000000e+000
          2.854613987538e+000 1.466581611369e+001 0.000000000000e+000
          2.339869278674e+000 1.493776402241e+001 0.000000000000e+000
          4.690956878046e+000 3.115726773737e+000 0.000000000000e+000
          4.014773718330e+000 2.850429494150e+000 0.000000000000e+000
          4.643493383296e+000 2.293565471327e+000 0.000000000000e+000
          5.186083944243e+000 1.661927139510e+000 0.000000000000e+000
          5.452965511439e+000 2.679881546544e+000 0.000000000000e+000
          5.360460104304e+000 3.539902157655e+000 0.000000000000e+000
          6.197986304192e+000 3.115706366113e+000 0.000000000000e+000
          7.929356606585e-001 1.634705420870e+001 0.000000000000e+000
          1.222819867503e+000 1.599517159419e+001 0.000000000000e+000
          1.215723647926e+000 1.546209040954e+001 0.000000000000e+000
          1.770601276021e+000 1.521217632514e+001 0.000000000000e+000
          1.242830150061e+000 1.493919370237e+001 0.000000000000e+000
          1.166444124506e+000 4.610115997312e+000 0.000000000000e+000
          1.851620547934e+000 4.486892013458e+000 0.000000000000e+000
          1.494152702314e+000 5.145235789232e+000 0.000000000000e+000
          1.353088107040e+000 4.090803091641e+000 0.000000000000e+000
          3.802567455935e+000 5.084697985980e+000 0.000000000000e+000
          1.014840185783e+000 5.494768572296e+000 0.000000000000e+000
          8.831064584820e-001 5.109311190608e+000 0.000000000000e+000
          1.727903958959e+000 1.618384478933e+001 0.000000000000e+000
          1.343261525342e+000 1.651800241408e+001 0.000000000000e+000
          3.308120627291e+000 8.593311644828e+000 0.000000000000e+000
[...]
      <PointData Scalars="LIQUID_PRESSURE">
        <DataArray type="Float64" Name="LIQUID_PRESSURE" format="ascii">
          1.000000000000e+006 1.000000000000e+006 1.000000000000e+006 1.146431580956e+006 1.150388505576e+006 1.152202843699e+006 1.164654458906e+006 1.160542898220e+006 1.159931231645e+006 1.155845733199e+006 1.151463709446e+006 1.158046543236e+006 1.147957474046e+006 1.155099303192e+006 1.150535176390e+006 1.153365390200e+006 1.154736723065e+006 1.149650974621e+006 1.160978595431e+006 1.160602995022e+006 1.161212547868e+006 1.159347641614e+006 1.166658578408e+006 1.159381363044e+006 1.000000000000e+006 1.000000000000e+006 1.000000000000e+006 1.000000000000e+006 1.000000000000e+006 1.000000000000e+006 1.000000000000e+006 1.000000000000e+006 1.000000000000e+006 1.000000000000e+006 1.000000000000e+006 1.000000000000e+006 1.000000000000e+006 1.000000000001e+006 1.000000000000e+006 1.000000000000e+006 1.000000000000e+006 1.000000000000e+006 1.000000000000e+006 1.000000000001e+006 1.000000000000e+006 1.000000000000e+006 1.000000000000e+006 1.000000000000e+006 1.000000000000e+006 1.000000000000e+006 1.000000000000e+006 1.000000000000e+006 1.000000000000e+006 1.000000000000e+006 1.000000000000e+006 1.000000000000e+006 1.000000000000e+006 1.000000000000e+006 1.000000000000e+006 1.000000000003e+006 1.000000000002e+006 1.000000000007e+006 1.000000000003e+006 1.000000000007e+006 1.000000000048e+006 1.000000000106e+006 1.000000000014e+006 1.000000000048e+006 1.000000000000e+006 1.000000000000e+006 1.000000000000e+006 1.000000000000e+006 1.000000000000e+006 1.000000000000e+006 1.000000000000e+006 1.000000000000e+006 1.000000000000e+006 1.000000000000e+006 1.000000000000e+006 1.000000000000e+006 1.000000000000e+006 1.000000000000e+006 1.000000000000e+006 1.129709927280e+006 1.138155238167e+006 1.138612841882e+006 1.125497421882e+006 1.166348863775e+006 1.167676219590e+006 1.163798937763e+006 1.038345149599e+006 1.038628744313e+006 1.045717717334e+006 1.106085502351e+006 1.107933956689e+006 1.097444938712e+006 1.135562981151e+006 1.140204808072e+006 1.133217492515e+006 1.165986614257e+006 1.159333365080e+006 1.159331800949e+006 1.140679619153e+006 1.156472402541e+006 1.162142109612e+006 1.163212984082e+006 1.155563607111e+006 1.149402091057e+006 1.146473196716e+006 1.147669258210e+006 1.139976085553e+006 1.162052498954e+006 1.165718217027e+006 1.166077236883e+006 1.157769628196e+006 1.152375095132e+006 1.157118029044e+006 1.132073026432e+006 1.140334804174e+006 1.132677123033e+006 1.125578587298e+006 1.121944801161e+006 1.123199248761e+006 1.111570841639e+006 1.167671704116e+006 1.166899737784e+006 1.166886198266e+006 1.162372646069e+006 1.166597626714e+006 1.167061093007e+006 1.161636577004e+006 1.164840743122e+006 1.165869272112e+006 1.142736078918e+006 1.167587097250e+006 1.167963983740e+006 1.162759133294e+006 1.165963505420e+006 1.147972953085e+006 1.154022276524e+006 1.149725244471e+006 1.167621524175e+006 1.167675129998e+006 1.166318675156e+006 1.167805679728e+006 1.167667045408e+006 1.165433567710e+006 1.151712321494e+006 1.167726160098e+006 1.151929542566e+006 1.154973189570e+006 1.163692975881e+006 1.159441319399e+006 1.166385209908e+006 1.162995375371e+006 1.158906562141e+006 1.139841939324e+006 1.129697196816e+006 1.125842424050e+006 1.119602985447e+006 1.114384831061e+006 1.165094632695e+006 1.165391987120e+006 1.167653617864e+006 1.168016184528e+006 1.162833426650e+006 1.159387340598e+006 1.163901595265e+006 1.159489754883e+006 1.157481316032e+006 1.142861634213e+006 1.138178897686e+006 1.165089892869e+006 1.167373345198e+006 1.154155270825e+006 1.149522366672e+006 1.153192774274e+006 1.164253635378e+006 1.159368452141e+006 1.167697081845e+006 1.161465927199e+006 1.161914840607e+006 1.150987141446e+006 1.155956585697e+006 1.167814768322e+006 1.167290887178e+006 1.149422942805e+006 1.145664307494e+006 1.162435117146e+006 1.157839894829e+006 1.112692950126e+006 1.101925970448e+006 1.158221485804e+006 1.157644710466e+006 1.168019272173e+006 1.157736028234e+006 1.164820840894e+006 1.155260898209e+006 1.145291100533e+006 1.145476238717e+006 1.138521276638e+006 1.160425098326e+006 1.163003773356e+006 1.166762310766e+006 1.167823580706e+006 1.166748581197e+006 1.164152720554e+006 1.148782751855e+006 1.149776087663e+006 1.165412164787e+006 1.167447278714e+006 1.164191389071e+006 1.159397047495e+006 1.000000000313e+006 1.000000000313e+006 1.154122414997e+006 1.158030748144e+006 1.168099713475e+006 1.083632373582e+006 1.091371382234e+006 1.077757595123e+006 1.143541113898e+006 1.135732289777e+006 1.167654600132e+006 1.164862313054e+006 1.167675640250e+006 1.161737575528e+006 1.155667919466e+006 1.167747343850e+006 1.160716291826e+006 1.167419387229e+006 1.167071191682e+006 1.153845014709e+006 1.145733429976e+006 1.166799605082e+006 1.144257540920e+006 1.161677582839e+006 1.162246283273e+006 1.147545315727e+006 1.158098371801e+006 1.164004590665e+006 1.166422372297e+006 1.166130185172e+006 1.159287488506e+006 1.159352685669e+006 1.159263306615e+006 1.159374636436e+006 1.165095569211e+006 1.159722180057e+006 1.164961846460e+006 1.167692452705e+006 1.166990815046e+006 1.159792325576e+006 1.163002827601e+006 1.159563267782e+006 1.159478383806e+006 1.165335224233e+006 1.159409292469e+006 1.165717210378e+006 1.159366675616e+006 1.164259269599e+006 1.159423782738e+006 1.159467872991e+006 1.000000004264e+006 1.000000000991e+006 1.000000000859e+006 1.000000007447e+006 1.000000000809e+006 1.000000003995e+006 1.000000000991e+006 1.000000004263e+006 1.000000000859e+006 1.000000007445e+006 1.000000000809e+006 1.000000003994e+006 1.000000069884e+006 1.000000031184e+006 1.000000018027e+006 1.000000115863e+006 1.000000016939e+006 1.000000065905e+006 1.000000031177e+006 1.000000069865e+006 1.000000018022e+006 1.000000115835e+006 1.000000016936e+006 1.000000065892e+006 1.000079389979e+006 1.000049687034e+006 1.000036251261e+006 1.000106031511e+006 1.000034855755e+006 1.000076648374e+006 1.000049677273e+006 1.000079373283e+006 1.000036243261e+006 1.000106011904e+006 1.000034850615e+006 1.000076637943e+006 1.000015503358e+006 1.000008947339e+006 1.000006181436e+006 1.000021819690e+006 1.000005903272e+006 1.000014853645e+006 1.000008945398e+006 1.000015499783e+006 1.000006179955e+006 1.000021815168e+006 1.000005902293e+006 1.000014851307e+006 1.000586679765e+006 1.000431317499e+006 1.000319262988e+006 1.000751269874e+006 1.000431242409e+006 1.000586572432e+006 1.000319202635e+006 1.000751146419e+006 1.000002286889e+006 1.000001203223e+006 1.000000780949e+006 1.000003411172e+006 1.000000741203e+006 1.000002177218e+006 1.000001202944e+006 1.000002286323e+006 1.000000780750e+006 1.000003410403e+006 1.000000741070e+006 1.000002176841e+006 1.000000244714e+006 1.000000390494e+006 1.000000231530e+006 1.000000244651e+006 1.000000390401e+006 1.000000231488e+006 1.000163637244e+006 1.000240846929e+006 1.000158743395e+006 1.000163604488e+006 1.000240805930e+006 1.000158723822e+006 1.000313725601e+006 1.000313691136e+006 1.000000145295e+006 1.000000322100e+006 1.000000094125e+006 1.000000481282e+006 1.000000145281e+006 1.000000481236e+006 1.000025298016e+006 1.000043147016e+006 1.000018805730e+006 1.000056866617e+006 1.000025296015e+006 1.000056862508e+006 1.000000039832e+006 1.000000024879e+006 1.000000039828e+006 1.000489218247e+006 1.000582270889e+006 1.000582326063e+006 1.000489245213e+006 1.000001005734e+006 1.000001458760e+006 1.000001458623e+006 1.000010520723e+006 1.000007643593e+006 1.000010519830e+006 1.000004071294e+006 1.000002884611e+006 1.000004070929e+006 1.000240338912e+006 1.000240353531e+006 1.000092649273e+006 1.000120026490e+006 1.000120018753e+006 1.000000009749e+006 1.000000005829e+006 1.000000009748e+006 1.000204262802e+006 1.000000001825e+006 1.000000000598e+006 1.000000001825e+006 1.000000000108e+006 1.000000000200e+006 1.000000000108e+006 1.000000000200e+006 1.093991636999e+006 1.085431763279e+006 1.097090760211e+006 1.081307310504e+006 1.152674664857e+006 1.154294417670e+006 1.158358934062e+006 1.152655774313e+006 1.158368403616e+006 1.130022275949e+006 1.127542938462e+006 1.163860235276e+006 1.165853141361e+006 1.117362927054e+006 1.000000000000e+006 1.000000000000e+006 1.000000000000e+006 1.108609314810e+006 1.097084376212e+006 1.100881000166e+006 1.106681533987e+006 1.141377250486e+006 1.155142556434e+006 1.167424698651e+006 1.141055102380e+006 1.164075481709e+006 1.157059432915e+006 1.162713209077e+006 1.094060483924e+006 1.093483750087e+006 1.081905251459e+006 1.157325947459e+006 1.151027586899e+006 1.159345177512e+006 1.165701048084e+006 1.159327526805e+006 1.085436712135e+006 1.094507338902e+006 1.094525041521e+006 1.100489461570e+006 1.087588310127e+006 1.107878120828e+006 1.081322633394e+006 1.069933994765e+006 1.075742911874e+006 1.081300807874e+006 1.166831251170e+006 1.140629898606e+006 1.142886404458e+006 1.147978343708e+006 1.081630293726e+006 1.075583662887e+006 1.069337687824e+006 1.064848299241e+006 1.145581791660e+006 1.152559763344e+006 1.048437870152e+006 1.046792397602e+006 1.055189510047e+006 1.100273625277e+006 1.107136167742e+006 1.038493363950e+006 1.048656436525e+006 1.043147196942e+006 1.136541071225e+006 1.119242617821e+006 1.112686857146e+006 1.030176644051e+006 1.030979548381e+006 1.163323930857e+006 1.166760598036e+006 1.093886694707e+006 1.106274665660e+006 1.089561951380e+006 1.093151542873e+006 1.081392942048e+006 1.080350309141e+006 1.118029807491e+006 1.060132801499e+006 1.064918898769e+006 1.046879054303e+006 1.041008330901e+006 1.037334018818e+006 1.070209435316e+006 1.035297303704e+006 1.041587427401e+006 1.043607377067e+006 1.032490680601e+006 1.137525135123e+006 1.140887218704e+006 1.059629929049e+006 1.067570080868e+006 1.123581582798e+006 1.148171796087e+006 1.130062426419e+006 1.132666249430e+006 1.167643465434e+006 1.167919152312e+006 1.154197867822e+006 1.158926491584e+006 1.112285490020e+006 1.118204592603e+006 1.080056273537e+006 1.073084338449e+006 1.068790154389e+006 1.086027231730e+006 1.075213600273e+006 1.068541056515e+006 1.083246723171e+006 1.113618972941e+006 1.113997493618e+006 1.120912146582e+006 1.087695011914e+006 1.129465814447e+006 1.104369771926e+006 1.128112085375e+006 1.122948080506e+006 1.058552574383e+006 1.049401657447e+006 1.055107358823e+006 1.136517302474e+006 1.144111016065e+006 1.123792338705e+006 1.076848260157e+006 1.132183354493e+006 1.051778577817e+006 1.056167176882e+006 1.167738543790e+006 1.165773346144e+006 1.134542569152e+006 1.127967824412e+006 1.135018850899e+006 1.104258737337e+006 1.131731796582e+006 1.087851505344e+006 1.077365260407e+006 1.160630040754e+006 1.146782113913e+006 1.150379199309e+006 1.140149167711e+006 1.097835856143e+006 1.093783098890e+006 1.096973788492e+006 1.104797629310e+006 1.127867465314e+006 1.162995180432e+006 1.156903306097e+006 1.063137704600e+006 1.068508939045e+006 1.070924145968e+006 1.060498269401e+006 1.114164173347e+006 1.050047746179e+006 1.040340203967e+006 1.043197598636e+006 1.116308088694e+006 1.136539881850e+006 1.158740920079e+006 1.091359752430e+006 1.063002879954e+006 1.058915924542e+006 1.053178258749e+006 1.068770238178e+006 1.068737726548e+006 1.159225936069e+006 1.162218557204e+006 1.152994610363e+006 1.055555735010e+006 1.051214242271e+006 1.102920928460e+006 1.111375650119e+006 1.112165778371e+006 1.058330668291e+006 1.068104313447e+006 1.064747170993e+006 1.159362503379e+006 1.167610044604e+006 1.164072120165e+006 1.141331574339e+006 1.143649737832e+006 1.062214526140e+006 1.074782337131e+006 1.121333709845e+006 1.167491374256e+006 1.166937812744e+006 1.078181610834e+006 1.069617742178e+006 1.072679024309e+006 1.153411803398e+006 1.097491538029e+006 1.133193920403e+006 1.059959350863e+006 1.120549231410e+006 1.156163172197e+006 1.152098578836e+006 1.160137347813e+006 1.086663151348e+006 1.050887368208e+006 1.152468166405e+006 1.147859675778e+006 1.077073183684e+006 1.045011761893e+006 1.052709425902e+006 1.150114299678e+006 1.165953001161e+006 1.164429336232e+006 1.064672205651e+006 1.060222662450e+006 1.054387122456e+006 1.000000000000e+006 1.000000000000e+006 1.000000000000e+006 1.084884015312e+006 1.165510533352e+006 1.155826839022e+006 1.154438924470e+006 1.150632649055e+006 1.134242495169e+006 1.085228414553e+006 1.146187306970e+006 1.132966703325e+006 1.127592539901e+006 1.000000000030e+006 1.000000000030e+006 1.165667511427e+006 1.159368245360e+006 1.163724609375e+006 1.127707251110e+006 1.070804050205e+006 1.119109556047e+006 1.076003142456e+006 1.167758659496e+006 1.100407127321e+006 1.164887945794e+006 1.056321291620e+006 1.057977425671e+006 1.094467007547e+006 1.000000000000e+006 1.000000000000e+006 1.140161147901e+006 1.120165342507e+006 1.123718934649e+006 1.113010727387e+006 1.088111295337e+006 1.166544632569e+006 1.000927737563e+006 1.000883945985e+006 1.000927678417e+006 1.000883917078e+006 1.146458199494e+006 1.167388481000e+006 1.089052328532e+006 1.167803972115e+006 1.000778441316e+006 1.000619085088e+006 1.000436311716e+006 1.000619096669e+006 1.051545744585e+006 1.045189749030e+006 1.165198081292e+006 1.056641467347e+006 1.144273432027e+006 1.148750609196e+006 1.138929949270e+006 1.135253909335e+006 1.167417456114e+006 1.168007635707e+006 1.159284246873e+006 1.166970649960e+006 1.039269520746e+006 1.049083619493e+006 1.000000000000e+006 1.000000000000e+006 1.164712711128e+006 1.160055528405e+006 1.141024255195e+006 1.155772715878e+006 1.079664818174e+006 1.164824817414e+006 1.088294696908e+006 1.000000000020e+006 1.000000000020e+006 1.033769912999e+006 1.111002015217e+006 1.026320143284e+006 1.022409589101e+006 1.019754682309e+006 1.051355534425e+006 1.139004411149e+006 1.142338032030e+006 1.042004639539e+006 1.000000000000e+006 1.000000000000e+006 1.034920889611e+006 1.159342220342e+006 1.159529772999e+006 1.044007970189e+006 1.159560024400e+006 1.164513669192e+006 1.159393767482e+006 1.047645001042e+006 1.001673642738e+006 1.001227205724e+006 1.001170634575e+006 1.002175551852e+006 1.001976582837e+006 1.001227214979e+006 1.002175541416e+006 1.001976585719e+006 1.002663124707e+006 1.003407200985e+006 1.002939958733e+006 1.003407164801e+006 1.002939902651e+006 1.004094067651e+006 1.005128371385e+006 1.004477901216e+006 1.005128281871e+006 1.004478072702e+006 1.006065892179e+006 1.007456349904e+006 1.006583545633e+006 1.007454729817e+006 1.006583663329e+006 1.008691629918e+006 1.010516470678e+006 1.009370057607e+006 1.010504310105e+006 1.009367625149e+006 1.012086632628e+006 1.014483420292e+006 1.012972140337e+006 1.014416177220e+006 1.012945490455e+006 1.001421280924e+006 1.001486214632e+006 1.002229983243e+006 1.002520351809e+006 1.001486255040e+006 1.001421376582e+006 1.002230082382e+006 1.002520373153e+006 1.003481439252e+006 1.003897726679e+006 1.003481373891e+006 1.003897749877e+006 1.005230769585e+006 1.005800388664e+006 1.005230807399e+006 1.005800154671e+006 1.007588846243e+006 1.008348231860e+006 1.007588897998e+006 1.008345024049e+006 1.004844488448e+006 1.006194573253e+006 1.004200935521e+006 1.007053088428e+006 1.003739183713e+006 1.005785709846e+006 1.006196275090e+006 1.004845461892e+006 1.004201848223e+006 1.007054769350e+006 1.003739688745e+006 1.005786364119e+006 1.008852479431e+006 1.009995711244e+006 1.008332392403e+006 1.008855967636e+006 1.009998974516e+006 1.008332859042e+006 1.012273476506e+006 1.013839958506e+006 1.011672444425e+006 1.012280986550e+006 1.013849150095e+006 1.011670220017e+006 1.016557289206e+006 1.019083050347e+006 1.015593086772e+006 1.016568495506e+006 1.019047934054e+006 1.015852705650e+006 1.021780997275e+006 1.025233289853e+006 1.021788053528e+006 1.024861284840e+006 1.010673948585e+006 1.011682312446e+006 1.010672257603e+006 1.011658793903e+006 1.001877003961e+006 1.000937945143e+006 1.001337369337e+006 1.001877185900e+006 1.000938051901e+006 1.001337578444e+006 1.002946980583e+006 1.002341272262e+006 1.002947210554e+006 1.002341622839e+006 1.004494881838e+006 1.004495128395e+006 1.006606712608e+006 1.006606852639e+006 1.009423446311e+006 1.009423085778e+006 1.062857885832e+006 1.073988223901e+006 1.063080287216e+006 1.165477520045e+006 1.013149618589e+006 1.013147179859e+006 1.028013270642e+006 1.028018680904e+006 1.016386821935e+006 1.019671585821e+006 1.017687515478e+006 1.019429212256e+006 1.017463497566e+006 1.014633547800e+006 1.016055318463e+006 1.014616076552e+006 1.015919320004e+006 1.017257603718e+006 1.052850013335e+006 1.017703710678e+006 1.063059790975e+006 1.073978890129e+006 1.032078028594e+006 1.035302813956e+006 1.019639618827e+006 1.023900867311e+006 1.021546191443e+006 1.021419442052e+006 1.021850924910e+006 1.024859808694e+006 1.024734855569e+006 1.025754876103e+006 1.024166100805e+006 1.029024064576e+006 1.027273406782e+006 1.028850989552e+006 1.025015766798e+006 1.028972178383e+006 1.033393441827e+006 1.104869514343e+006 1.058034268191e+006 1.032884996732e+006 1.115142977844e+006 1.165805471968e+006 1.031792115662e+006 1.000000000000e+006 1.000000000000e+006 1.000000000000e+006 1.100605019003e+006 1.107589237298e+006 1.115685884495e+006 1.109878080767e+006 1.101891209676e+006 1.146261412731e+006 1.159340160413e+006 1.114680333123e+006 1.159531252320e+006 1.095492813768e+006 1.043578397468e+006 1.041004797053e+006 1.145947638271e+006 1.127818919882e+006 1.038369182201e+006 1.034275568772e+006 1.104948133206e+006 1.037049127406e+006 1.038653362274e+006 1.065716075662e+006 1.051169546531e+006 1.020317496077e+006 1.101010924833e+006 1.000000000007e+006 1.000000000007e+006 1.136824815757e+006 1.000370587666e+006 1.000370577876e+006 1.028628496956e+006 1.127882660508e+006 1.105852554082e+006 1.027923628013e+006 1.118385863944e+006 1.121717752245e+006 1.164610629205e+006 1.023256068626e+006 1.024493187612e+006 1.023704039809e+006 1.088966880737e+006 1.000000000000e+006 1.000000000000e+006 1.075669075696e+006 1.048841961768e+006 1.000000000000e+006 1.159303218141e+006 1.166163597276e+006 1.159443700401e+006 1.031126169964e+006 1.098610950026e+006 1.000000000000e+006 1.138343145022e+006 1.138620092980e+006 1.119609851162e+006 1.039585551764e+006 1.133492757034e+006 1.001025217128e+006 1.001025402238e+006 1.138401242012e+006 1.164404487206e+006 1.057252994302e+006 1.143371200859e+006 1.133138058015e+006 1.162720788567e+006 1.145911523432e+006 1.152304553256e+006 1.112823182424e+006 1.080339497175e+006 1.085429145900e+006 1.127202871062e+006 1.159455747686e+006 1.131189885706e+006 1.159398418838e+006 1.052869235856e+006 1.048471694229e+006 1.146287903233e+006 1.039998865782e+006 1.000000000000e+006 1.033888005695e+006 1.000000000000e+006 1.028716287058e+006 1.121246456536e+006 1.037323968265e+006 1.151144360274e+006 1.034898814690e+006 1.105901516235e+006 1.019444377223e+006 1.131538068723e+006 1.108605666863e+006 1.159328086524e+006 1.159383313106e+006 1.159328329686e+006 1.159560073333e+006 1.000000000000e+006 1.000000000000e+006 1.000000000000e+006 1.000000000000e+006 1.163930332026e+006 1.000000000000e+006 1.000000000000e+006 1.167664083724e+006 1.163565035548e+006 1.159961826511e+006 1.103755305512e+006 1.000000000000e+006 1.116350694548e+006 1.126614717459e+006 1.000487085242e+006 1.000487153805e+006 1.001707886919e+006 1.001708200298e+006 1.159386133064e+006 1.162754575995e+006 1.003090620717e+006 1.003090052233e+006 1.002731568247e+006 1.002732089664e+006 1.163435418010e+006 1.159980098279e+006 
        </DataArray>
        <DataArray type="Float64" Name="MOLAR_FRACTION" format="ascii">