<?xml version="1.0"?>
<VTKFile type="UnstructuredGrid" version="0.1" byte_order="LittleEndian">
  <UnstructuredGrid>
    <Piece NumberOfPoints="963" NumberOfCells="1758">
      <Points>
        <DataArray type="Float64" NumberOfComponents="3" format="ascii">
          1.600262034769e+002 1.257989505921e+001 0.000000000000e+000
          1.635346199106e+002 2.000000000000e+001 0.000000000000e+000
          1.554515002484e+002 2.000000000000e+001 0.000000000000e+000
          3.459306441575e+000 1.667621982453e+001 0.000000000000e+000
          3.062266634850e+000 1.705413688405e+001 0.000000000000e+000
          2.873380769063e+000 1.650527725632e+001 0.000000000000e+000
          1.514088444034e+000 1.865189448105e+001 0.000000000000e+000
          1.967902677551e+000 1.834103489750e+001 0.000000000000e+000
          2.034564522234e+000 1.890806711991e+001 0.000000000000e+000
          2.478275273162e+000 1.702762299110e+001 0.000000000000e+000
          2.952621433467e+000 1.774357373580e+001 0.000000000000e+000
          2.237893542067e+000 1.782457469610e+001 0.000000000000e+000
          3.313583922780e+000 3.274674552047e+000 0.000000000000e+000
          2.561432712787e+000 3.156040447793e+000 0.000000000000e+000
          3.047531989640e+000 2.714594415171e+000 0.000000000000e+000
          2.750804692284e+000 3.936058190693e+000 0.000000000000e+000
          2.599039179818e+000 2.451529939148e+000 0.000000000000e+000
          3.139686649742e+000 2.186924052088e+000 0.000000000000e+000
          1.919984553221e+000 3.358010194268e+000 0.000000000000e+000
          1.960900304591e+000 2.773319745251e+000 0.000000000000e+000
          1.894565400391e+000 1.733316857565e+001 0.000000000000e+000
          0.000000000000e+000 1.538461538461e+001 0.000000000000e+000
          5.816229249735e-001 1.567919247147e+001 0.000000000000e+000
          0.000000000000e+000 1.589743589743e+001 0.000000000000e+000
          9.766405669483e+001 2.000000000000e+001 0.000000000000e+000
          1.010672711393e+002 1.500000000000e+001 0.000000000000e+000
          1.029329279907e+002 2.000000000000e+001 0.000000000000e+000
          9.588503785413e+001 1.500000000000e+001 0.000000000000e+000
          1.039231647117e+002 1.000000000000e+001 0.000000000000e+000
          9.860830811271e+001 1.000000000000e+001 0.000000000000e+000
          1.010672711397e+002 5.000000000000e+000 0.000000000000e+000
          9.766405669557e+001 0.000000000000e+000 0.000000000000e+000
          1.029329279915e+002 0.000000000000e+000 0.000000000000e+000
          9.588503785449e+001 5.000000000000e+000 0.000000000000e+000
          7.892434178002e+001 2.000000000000e+001 0.000000000000e+000
          8.173808356948e+001 1.500000000000e+001 0.000000000000e+000
          8.328058896910e+001 2.000000000000e+001 0.000000000000e+000
          7.679274808893e+001 1.514423393202e+001 0.000000000000e+000
          7.970503892166e+001 1.000000000000e+001 0.000000000000e+000
          8.409930620613e+001 1.000000000000e+001 0.000000000000e+000
          8.173808356980e+001 5.000000000000e+000 0.000000000000e+000
          7.892434178065e+001 0.000000000000e+000 0.000000000000e+000
          8.328058896976e+001 0.000000000000e+000 0.000000000000e+000
          7.679274808925e+001 4.855766067979e+000 0.000000000000e+000
          1.084583939765e+002 2.000000000000e+001 0.000000000000e+000
          1.122011528880e+002 1.500000000000e+001 0.000000000000e+000
          1.142529496098e+002 2.000000000000e+001 0.000000000000e+000
          1.065018792644e+002 1.500000000000e+001 0.000000000000e+000
          1.153419838410e+002 1.000000000000e+001 0.000000000000e+000
          1.094968549120e+002 1.000000000000e+001 0.000000000000e+000
          1.122011528884e+002 5.000000000000e+000 0.000000000000e+000
          1.084583939773e+002 0.000000000000e+000 0.000000000000e+000
          1.142529496106e+002 0.000000000000e+000 0.000000000000e+000
          1.065018792648e+002 5.000000000000e+000 0.000000000000e+000
          1.181779812237e+002 1.500000000000e+001 0.000000000000e+000
          1.203297004775e+002 2.000000000000e+001 0.000000000000e+000
          1.214717707847e+002 1.000000000000e+001 0.000000000000e+000
          1.181779812242e+002 5.000000000000e+000 0.000000000000e+000
          1.203297004784e+002 0.000000000000e+000 0.000000000000e+000
          7.477039199538e+001 2.000000000000e+001 0.000000000000e+000
          7.551483469771e+001 1.000000000000e+001 0.000000000000e+000
          7.296959467356e+001 1.385646386579e+001 0.000000000000e+000
          7.477039199599e+001 0.000000000000e+000 0.000000000000e+000
          7.296959467379e+001 6.143536134207e+000 0.000000000000e+000
          6.918477198508e+001 1.366665532880e+001 0.000000000000e+000
          6.746477463053e+001 1.000000000000e+001 0.000000000000e+000
          7.151921701478e+001 1.000000000000e+001 0.000000000000e+000
          6.918477198529e+001 6.333344671202e+000 0.000000000000e+000
          9.263986346551e+001 2.000000000000e+001 0.000000000000e+000
          9.094345943471e+001 1.500000000000e+001 0.000000000000e+000
          9.354026529380e+001 1.000000000000e+001 0.000000000000e+000
          9.263986346623e+001 0.000000000000e+000 0.000000000000e+000
          9.094345943506e+001 5.000000000000e+000 0.000000000000e+000
          1.244344522558e+002 1.503312574389e+001 0.000000000000e+000
          1.267023895482e+002 2.000000000000e+001 0.000000000000e+000
          1.285510028831e+002 1.020485663255e+001 0.000000000000e+000
          1.244344522563e+002 5.033125743893e+000 0.000000000000e+000
          1.267023895491e+002 0.000000000000e+000 0.000000000000e+000
          8.623136018348e+001 1.500000000000e+001 0.000000000000e+000
          8.784898578901e+001 2.000000000000e+001 0.000000000000e+000
          8.870757443665e+001 1.000000000000e+001 0.000000000000e+000
          8.623136018382e+001 5.000000000000e+000 0.000000000000e+000
          8.784898578969e+001 0.000000000000e+000 0.000000000000e+000
          4.872472752737e+000 0.000000000000e+000 0.000000000000e+000
          4.204479229380e+000 6.412840757122e-001 0.000000000000e+000
          4.157376851380e+000 0.000000000000e+000 0.000000000000e+000
          5.192892237051e+000 7.280355562789e-001 0.000000000000e+000
          1.306630304579e+000 6.212843344151e-001 0.000000000000e+000
          1.050228457081e+000 0.000000000000e+000 0.000000000000e+000
          1.614006202528e+000 0.000000000000e+000 0.000000000000e+000
          1.266763055794e+001 1.554696422866e+001 0.000000000000e+000
          1.263589100638e+001 1.657720348306e+001 0.000000000000e+000
          1.174268578662e+001 1.633018318031e+001 0.000000000000e+000
          6.588835695415e+000 7.505681085529e+000 0.000000000000e+000
          6.456871838389e+000 6.658671683861e+000 0.000000000000e+000
          7.208099140752e+000 7.038822846307e+000 0.000000000000e+000
          4.412623338166e+000 9.138856431549e+000 0.000000000000e+000
          4.024185797397e+000 8.708923235630e+000 0.000000000000e+000
          4.601447447338e+000 8.507292699647e+000 0.000000000000e+000
          5.325995059827e-001 6.308307298123e+000 0.000000000000e+000
          0.000000000000e+000 6.666666666655e+000 0.000000000000e+000
          0.000000000000e+000 6.153846153835e+000 0.000000000000e+000
          3.986461521768e+000 8.146114708182e+000 0.000000000000e+000
          2.411603373059e+000 6.510912162016e+000 0.000000000000e+000
          1.807525763324e+000 6.938080373464e+000 0.000000000000e+000
          1.686779352680e+000 6.178928843543e+000 0.000000000000e+000
          2.510760620997e+000 7.229076682239e+000 0.000000000000e+000
          3.166991983438e+000 6.906135870389e+000 0.000000000000e+000
          3.452788915829e+000 6.276851216781e+000 0.000000000000e+000
          3.340122000742e+000 5.656365440432e+000 0.000000000000e+000
          4.047936562877e+000 5.873561587395e+000 0.000000000000e+000
          1.802463974828e+000 1.292744708026e+001 0.000000000000e+000
          1.383967161336e+000 1.330299552906e+001 0.000000000000e+000
          1.329690820161e+000 1.266495373033e+001 0.000000000000e+000
          2.267922292389e+000 1.431116835808e+001 0.000000000000e+000
          2.854613987538e+000 1.466581611369e+001 0.000000000000e+000
          2.339869278674e+000 1.493776402241e+001 0.000000000000e+000
          4.690956878046e+000 3.115726773737e+000 0.000000000000e+000
          4.014773718330e+000 2.850429494150e+000 0.000000000000e+000
          4.643493383296e+000 2.293565471327e+000 0.000000000000e+000
          5.186083944243e+000 1.661927139510e+000 0.000000000000e+000
          5.452965511439e+000 2.679881546544e+000 0.000000000000e+000
          5.360460104304e+000 3.539902157655e+000 0.000000000000e+000
          6.197986304192e+000 3.115706366113e+000 0.000000000000e+000
          7.929356606585e-001 1.634705420870e+001 0.000000000000e+000
          1.222819867503e+000 1.599517159419e+001 0.000000000000e+000
          1.215723647926e+000 1.546209040954e+001 0.000000000000e+000
          1.770601276021e+000 1.521217632514e+001 0.000000000000e+000
          1.242830150061e+000 1.493919370237e+001 0.000000000000e+000
          1.166444124506e+000 4.610115997312e+000 0.000000000000e+000
          1.851620547934e+000 4.486892013458e+000 0.000000000000e+000
          1.494152702314e+000 5.145235789232e+000 0.000000000000e+000
          1.353088107040e+000 4.090803091641e+000 0.000000000000e+000
          3.802567455935e+000 5.084697985980e+000 0.000000000000e+000
          1.014840185783e+000 5.494768572296e+000 0.000000000000e+000
          8.831064584820e-001 5.109311190608e+000 0.000000000000e+000
          1.727903958959e+000 1.618384478933e+001 0.000000000000e+000
          1.343261525342e+000 1.651800241408e+001 0.000000000000e+000
          3.308120627291e+000 8.593311644828e+000 0.000000000000e+000
[...]
      <PointData Scalars="LIQUID_PRESSURE">
        <DataArray type="Float64" Name="LIQUID_PRESSURE" format="ascii">
          1.000000000000e+006 1.000000000000e+006 1.000000000000e+006 1.121810168029e+006 1.126503212561e+006 1.128689406132e+006 1.143379231481e+006 1.138792325257e+006 1.138071222033e+006 1.133147154369e+006 1.127786957296e+006 1.135814365432e+006 1.123585418263e+006 1.132224931377e+006 1.126679085834e+006 1.130092231850e+006 1.131790736910e+006 1.125614405752e+006 1.139294517533e+006 1.138873248229e+006 1.139573345433e+006 1.137268251116e+006 1.144586965776e+006 1.137316201534e+006 1.000000000000e+006 1.000000000000e+006 1.000000000000e+006 1.000000000000e+006 1.000000000000e+006 1.000000000000e+006 1.000000000000e+006 1.000000000000e+006 1.000000000000e+006 1.000000000000e+006 1.000000000000e+006 1.000000000000e+006 1.000000000000e+006 1.000000000000e+006 1.000000000000e+006 1.000000000000e+006 1.000000000000e+006 1.000000000000e+006 1.000000000000e+006 1.000000000000e+006 1.000000000000e+006 1.000000000000e+006 1.000000000000e+006 1.000000000000e+006 1.000000000000e+006 1.000000000000e+006 1.000000000000e+006 1.000000000000e+006 1.000000000000e+006 1.000000000000e+006 1.000000000000e+006 1.000000000000e+006 1.000000000000e+006 1.000000000000e+006 1.000000000000e+006 1.000000000000e+006 1.000000000000e+006 1.000000000000e+006 1.000000000000e+006 1.000000000000e+006 1.000000000001e+006 1.000000000003e+006 1.000000000000e+006 1.000000000001e+006 1.000000000000e+006 1.000000000000e+006 1.000000000000e+006 1.000000000000e+006 1.000000000000e+006 1.000000000000e+006 1.000000000000e+006 1.000000000000e+006 1.000000000000e+006 1.000000000000e+006 1.000000000000e+006 1.000000000000e+006 1.000000000000e+006 1.000000000000e+006 1.000000000000e+006 1.103382201383e+006 1.112426096330e+006 1.112979955051e+006 1.098964079760e+006 1.145112406745e+006 1.146210851523e+006 1.142471146120e+006 1.022312664966e+006 1.022525297826e+006 1.027727242489e+006 1.079609215484e+006 1.081380071804e+006 1.071393093783e+006 1.109626282198e+006 1.114728097063e+006 1.107093009526e+006 1.143849383802e+006 1.137226623279e+006 1.137266310587e+006 1.115239784131e+006 1.133933572279e+006 1.140672092166e+006 1.141848224564e+006 1.132811187261e+006 1.125309889480e+006 1.121873354328e+006 1.123254753144e+006 1.114451554925e+006 1.140511189735e+006 1.144499911266e+006 1.144832830898e+006 1.135487388308e+006 1.128900575902e+006 1.134697019237e+006 1.105875402522e+006 1.114865669505e+006 1.106521193719e+006 1.099054968754e+006 1.095327033051e+006 1.096610153563e+006 1.084937091433e+006 1.145886852376e+006 1.145601062636e+006 1.145584777678e+006 1.140900774427e+006 1.145313842977e+006 1.145746740416e+006 1.140067848258e+006 1.143582718505e+006 1.144611018152e+006 1.117565712188e+006 1.146087294638e+006 1.146306260577e+006 1.141313027567e+006 1.144708526804e+006 1.123621546863e+006 1.130912222475e+006 1.125693273671e+006 1.145895981270e+006 1.145900966412e+006 1.145056608771e+006 1.146000344067e+006 1.146094628381e+006 1.144181951837e+006 1.128082507435e+006 1.145976271682e+006 1.128371300981e+006 1.132068406348e+006 1.141498827814e+006 1.137394347451e+006 1.145108616402e+006 1.141577295436e+006 1.136853500318e+006 1.114333757940e+006 1.103367449962e+006 1.099313924307e+006 1.092946990641e+006 1.087718668206e+006 1.143839294395e+006 1.144143046543e+006 1.146054290786e+006 1.146361887444e+006 1.141413914666e+006 1.137323046025e+006 1.141687839206e+006 1.137445664655e+006 1.135132386593e+006 1.117718374304e+006 1.112465377761e+006 1.143812839188e+006 1.145946329585e+006 1.131074304683e+006 1.125467969240e+006 1.129905912971e+006 1.142048091752e+006 1.137326252249e+006 1.146252278440e+006 1.139844445600e+006 1.140358801457e+006 1.127218994044e+006 1.133277581539e+006 1.146083720159e+006 1.145416052847e+006 1.125345278443e+006 1.120932592311e+006 1.140968383578e+006 1.135559063921e+006 1.086038646627e+006 1.075606494443e+006 1.136033433989e+006 1.135318339157e+006 1.146439619440e+006 1.135442841436e+006 1.143553918070e+006 1.132438951057e+006 1.120499521830e+006 1.120694672818e+006 1.112864366079e+006 1.138668982719e+006 1.141584405996e+006 1.145465061682e+006 1.146268782135e+006 1.145431070533e+006 1.142855149922e+006 1.124582707775e+006 1.125761361992e+006 1.144158796988e+006 1.146002626058e+006 1.142885694938e+006 1.137435820328e+006 1.000000000010e+006 1.000000000010e+006 1.131031966566e+006 1.135803754630e+006 1.146529082114e+006 1.058797193747e+006 1.065758189172e+006 1.053634209569e+006 1.118467570650e+006 1.109805220548e+006 1.146157288534e+006 1.143593919630e+006 1.146050449237e+006 1.140174549213e+006 1.132932813065e+006 1.146153986727e+006 1.138983221482e+006 1.146073446346e+006 1.145732491246e+006 1.130692275414e+006 1.121008320117e+006 1.144752452121e+006 1.119311093575e+006 1.140111830503e+006 1.140786052949e+006 1.123109561703e+006 1.135902676643e+006 1.142687351928e+006 1.144320449192e+006 1.144001503613e+006 1.137147813036e+006 1.137231874868e+006 1.137167051743e+006 1.137295846652e+006 1.142896331855e+006 1.137753871242e+006 1.142767160271e+006 1.146188612199e+006 1.144990150906e+006 1.137795127755e+006 1.140804665498e+006 1.137550340118e+006 1.137436512166e+006 1.143157151490e+006 1.137372909014e+006 1.143563374964e+006 1.137300196733e+006 1.142052552993e+006 1.137380767004e+006 1.137446153077e+006 1.000000000179e+006 1.000000000035e+006 1.000000000030e+006 1.000000000330e+006 1.000000000029e+006 1.000000000167e+006 1.000000000035e+006 1.000000000179e+006 1.000000000030e+006 1.000000000329e+006 1.000000000029e+006 1.000000000166e+006 1.000000003929e+006 1.000000001602e+006 1.000000000877e+006 1.000000006867e+006 1.000000000817e+006 1.000000003671e+006 1.000000001601e+006 1.000000003927e+006 1.000000000876e+006 1.000000006864e+006 1.000000000816e+006 1.000000003670e+006 1.000011576129e+006 1.000006664640e+006 1.000004637056e+006 1.000016193055e+006 1.000004414571e+006 1.000011075995e+006 1.000006662210e+006 1.000011571411e+006 1.000004635160e+006 1.000016187262e+006 1.000004413424e+006 1.000011073264e+006 1.000001736722e+006 1.000000920193e+006 1.000000605439e+006 1.000002565003e+006 1.000000572148e+006 1.000001646750e+006 1.000000919850e+006 1.000001736011e+006 1.000000605191e+006 1.000002564055e+006 1.000000571990e+006 1.000001646306e+006 1.000125281874e+006 1.000086456677e+006 1.000060253518e+006 1.000168908132e+006 1.000086424265e+006 1.000125230700e+006 1.000060229302e+006 1.000168846059e+006 1.000000195522e+006 1.000000094272e+006 1.000000058183e+006 1.000000306446e+006 1.000000054667e+006 1.000000184222e+006 1.000000094237e+006 1.000000195442e+006 1.000000058159e+006 1.000000306332e+006 1.000000054651e+006 1.000000184170e+006 1.000000015856e+006 1.000000026637e+006 1.000000014857e+006 1.000000015850e+006 1.000000026627e+006 1.000000014853e+006 1.000027151250e+006 1.000042831592e+006 1.000026137656e+006 1.000027140213e+006 1.000042816757e+006 1.000026131655e+006 1.000058898384e+006 1.000058885973e+006 1.000000008858e+006 1.000000021623e+006 1.000000005489e+006 1.000000033743e+006 1.000000008857e+006 1.000000033738e+006 1.000003044304e+006 1.000005664984e+006 1.000002168001e+006 1.000007800982e+006 1.000003043897e+006 1.000007800014e+006 1.000000002106e+006 1.000000001257e+006 1.000000002106e+006 1.000100041568e+006 1.000124283486e+006 1.000124306591e+006 1.000100051191e+006 1.000000077526e+006 1.000000117366e+006 1.000000117349e+006 1.000001108812e+006 1.000000772056e+006 1.000001108655e+006 1.000000375209e+006 1.000000254782e+006 1.000000375154e+006 1.000042740651e+006 1.000042745161e+006 1.000013818217e+006 1.000018737194e+006 1.000018735100e+006 1.000000000445e+006 1.000000000253e+006 1.000000000445e+006 1.000035097725e+006 1.000000000070e+006 1.000000000019e+006 1.000000000070e+006 1.000000000003e+006 1.000000000006e+006 1.000000000003e+006 1.000000000006e+006 1.068187252364e+006 1.060407556084e+006 1.071066049947e+006 1.056737965561e+006 1.129253708415e+006 1.131240803134e+006 1.136188451356e+006 1.129241674374e+006 1.136196710627e+006 1.103700111702e+006 1.101094607482e+006 1.142564060070e+006 1.143695713747e+006 1.090703316991e+006 1.000000000000e+006 1.000000000000e+006 1.000000000000e+006 1.082042158032e+006 1.071052972351e+006 1.074622100942e+006 1.080173478912e+006 1.116044525059e+006 1.132279112576e+006 1.146009386356e+006 1.115670851382e+006 1.142782139755e+006 1.134650751832e+006 1.141283702063e+006 1.068250335929e+006 1.067722383834e+006 1.057254063273e+006 1.134964462150e+006 1.127264494765e+006 1.137219647070e+006 1.143551138123e+006 1.137273635625e+006 1.060424568846e+006 1.068649208635e+006 1.068660744818e+006 1.074251278246e+006 1.062334885449e+006 1.081323869061e+006 1.056756581228e+006 1.046979602462e+006 1.051907644835e+006 1.056731258345e+006 1.144789083914e+006 1.115188866439e+006 1.117738085601e+006 1.123635437570e+006 1.057029530266e+006 1.051770579522e+006 1.046477451992e+006 1.042759866965e+006 1.120826630034e+006 1.129132054886e+006 1.029769741973e+006 1.028548663237e+006 1.035002479635e+006 1.074048828772e+006 1.080608151635e+006 1.022409749141e+006 1.029944790097e+006 1.025817714621e+006 1.110693670128e+006 1.092583292508e+006 1.086035422852e+006 1.016588960092e+006 1.017136790968e+006 1.141959568310e+006 1.145451540634e+006 1.068083991004e+006 1.079778913354e+006 1.064134591814e+006 1.067405657358e+006 1.056810325664e+006 1.055906890744e+006 1.091357772542e+006 1.038929468790e+006 1.042815372127e+006 1.028606115694e+006 1.024248270172e+006 1.021583878151e+006 1.047207269132e+006 1.020144460343e+006 1.024673919032e+006 1.026162263899e+006 1.018173831751e+006 1.111762600237e+006 1.115486719183e+006 1.038515662351e+006 1.044983500718e+006 1.096999267603e+006 1.123859935480e+006 1.103749908805e+006 1.106508847716e+006 1.146224494318e+006 1.146349833413e+006 1.131138692701e+006 1.136888168317e+006 1.085639749655e+006 1.091533296605e+006 1.055659752432e+006 1.049634578631e+006 1.046020334142e+006 1.060925601430e+006 1.051462106754e+006 1.045794239178e+006 1.058440489925e+006 1.086970783475e+006 1.087346498295e+006 1.094280750688e+006 1.062432876926e+006 1.103111376864e+006 1.077953416112e+006 1.101694630482e+006 1.096349184948e+006 1.037660803653e+006 1.030515492789e+006 1.034930338024e+006 1.110662032341e+006 1.119136327264e+006 1.097218146211e+006 1.052867793657e+006 1.105992400465e+006 1.032341979658e+006 1.035765746823e+006 1.146201057046e+006 1.143645203861e+006 1.108538324094e+006 1.101559138638e+006 1.109051724470e+006 1.077840378034e+006 1.105494381880e+006 1.062581209371e+006 1.053309728848e+006 1.138904404644e+006 1.122225730663e+006 1.126493817010e+006 1.114663462940e+006 1.071758436921e+006 1.067997936474e+006 1.070939543216e+006 1.078360751529e+006 1.101438440309e+006 1.141563446128e+006 1.134436231000e+006 1.041364552239e+006 1.045777621179e+006 1.047809844612e+006 1.039218363220e+006 1.087497832713e+006 1.031008840483e+006 1.023757084044e+006 1.025850231977e+006 1.089620267331e+006 1.110687463948e+006 1.136661779380e+006 1.065739709454e+006 1.041250194706e+006 1.037953009865e+006 1.033429568999e+006 1.045990668574e+006 1.045985052828e+006 1.137223433086e+006 1.140730393300e+006 1.129652309923e+006 1.035291819573e+006 1.031916977759e+006 1.076575083070e+006 1.084755416359e+006 1.085528906086e+006 1.037487631663e+006 1.045453838105e+006 1.042666522686e+006 1.137404808883e+006 1.146222888060e+006 1.141858730609e+006 1.115982921707e+006 1.118608561788e+006 1.040608192921e+006 1.051084370758e+006 1.094684969915e+006 1.146118566764e+006 1.144908564593e+006 1.054013057007e+006 1.046698932869e+006 1.049302522675e+006 1.130170104431e+006 1.071432493139e+006 1.107071222962e+006 1.038788794901e+006 1.093898485113e+006 1.133527927613e+006 1.128563946181e+006 1.138313901000e+006 1.061508512891e+006 1.031658066815e+006 1.129021420972e+006 1.123492227698e+006 1.053067210550e+006 1.027206853416e+006 1.033063247186e+006 1.126173974276e+006 1.143823626577e+006 1.142227831658e+006 1.042610163911e+006 1.039000593176e+006 1.034371566350e+006 1.000000000000e+006 1.000000000000e+006 1.000000000000e+006 1.059919646167e+006 1.143393246453e+006 1.133126664288e+006 1.131424547097e+006 1.126793064822e+006 1.108194367192e+006 1.060227156049e+006 1.121527168630e+006 1.106840895444e+006 1.101148074059e+006 1.000000000001e+006 1.000000000001e+006 1.143527477597e+006 1.137286090558e+006 1.142373787084e+006 1.101267045788e+006 1.047702560812e+006 1.092451900007e+006 1.052121911872e+006 1.145998241953e+006 1.074163309752e+006 1.143615713082e+006 1.035890889934e+006 1.037195409356e+006 1.068618424874e+006 1.000000000000e+006 1.000000000000e+006 1.114674634228e+006 1.093515361080e+006 1.097137136366e+006 1.086351231609e+006 1.062807310034e+006 1.144449477902e+006 1.000218619160e+006 1.000205963844e+006 1.000218592731e+006 1.000205953135e+006 1.121835227709e+006 1.145431309242e+006 1.063677073401e+006 1.146351208838e+006 1.000176679987e+006 1.000133174934e+006 1.000087312125e+006 1.000133178708e+006 1.032175810745e+006 1.027340795958e+006 1.143905264865e+006 1.036140244754e+006 1.119325535416e+006 1.124517638508e+006 1.113304760773e+006 1.109294790716e+006 1.145938758677e+006 1.146499576233e+006 1.137316989443e+006 1.145656276235e+006 1.022980577901e+006 1.030267461624e+006 1.000000000000e+006 1.000000000000e+006 1.142530796940e+006 1.138216460209e+006 1.115647784187e+006 1.133057220329e+006 1.055311878111e+006 1.142628107816e+006 1.062967254465e+006 1.000000000000e+006 1.000000000000e+006 1.019060671926e+006 1.084385798164e+006 1.013989220822e+006 1.011457261622e+006 1.009789094329e+006 1.032005712577e+006 1.113380784459e+006 1.117112785179e+006 1.024977002408e+006 1.000000000000e+006 1.000000000000e+006 1.019880471732e+006 1.137223838706e+006 1.137491950077e+006 1.026450947866e+006 1.137582628243e+006 1.142301642122e+006 1.137350003003e+006 1.029185570032e+006 1.000450294812e+006 1.000306330501e+006 1.000290965672e+006 1.000621292874e+006 1.000553001786e+006 1.000306331591e+006 1.000621279411e+006 1.000552994432e+006 1.000798379602e+006 1.001084555118e+006 1.000903237698e+006 1.001084510787e+006 1.000903189042e+006 1.001363338494e+006 1.001806420478e+006 1.001525063075e+006 1.001806456316e+006 1.001525209811e+006 1.002228796094e+006 1.002886780976e+006 1.002469992595e+006 1.002886163354e+006 1.002470215454e+006 1.003498964569e+006 1.004444157014e+006 1.003845220299e+006 1.004438029718e+006 1.003844323178e+006 1.005292357536e+006 1.006639331161e+006 1.005782391557e+006 1.006601044390e+006 1.005768301178e+006 1.000369306795e+006 1.000388407978e+006 1.000641395480e+006 1.000745828074e+006 1.000388423853e+006 1.000369357886e+006 1.000641454720e+006 1.000745831310e+006 1.001115000299e+006 1.001282868257e+006 1.001114952621e+006 1.001282911706e+006 1.001852998198e+006 1.002108022628e+006 1.001853011851e+006 1.002108008131e+006 1.002952949496e+006 1.003327066636e+006 1.002952994366e+006 1.003325640328e+006 1.001683642353e+006 1.002290093642e+006 1.001410430488e+006 1.002693791905e+006 1.001218330317e+006 1.002101809340e+006 1.002291481641e+006 1.001684426109e+006 1.001411144255e+006 1.002695212490e+006 1.001218720591e+006 1.002102381617e+006 1.003582221009e+006 1.004170992947e+006 1.003320435294e+006 1.003585087043e+006 1.004173802408e+006 1.003320996289e+006 1.005396184989e+006 1.006271083321e+006 1.005068478948e+006 1.005402286772e+006 1.006278706780e+006 1.005067344196e+006 1.007851463935e+006 1.009371360382e+006 1.007286361366e+006 1.007860725166e+006 1.009354194313e+006 1.007439266770e+006 1.011057922673e+006 1.013280606646e+006 1.011064196778e+006 1.013038313400e+006 1.004529925496e+006 1.005071474526e+006 1.004528939687e+006 1.005058926467e+006 1.000518096174e+006 1.000220400710e+006 1.000341426294e+006 1.000518209282e+006 1.000220454348e+006 1.000341549913e+006 1.000906402056e+006 1.000680376123e+006 1.000906566208e+006 1.000680617225e+006 1.001533510296e+006 1.001533716323e+006 1.002482067808e+006 1.002482231980e+006 1.003874463856e+006 1.003874263094e+006 1.041107706700e+006 1.050406073779e+006 1.041318954722e+006 1.143333261401e+006 1.005884767415e+006 1.005882864925e+006 1.015123880264e+006 1.015129488633e+006 1.007750406683e+006 1.009740350871e+006 1.008523675738e+006 1.009589451114e+006 1.008390966412e+006 1.006727841751e+006 1.007554168690e+006 1.006716748808e+006 1.007474454279e+006 1.008271125795e+006 1.033167575387e+006 1.008537665084e+006 1.041295770513e+006 1.050394860591e+006 1.017889612608e+006 1.020150732711e+006 1.009722419172e+006 1.012409072072e+006 1.010909235652e+006 1.010832291928e+006 1.011102462727e+006 1.013045490659e+006 1.012947543016e+006 1.013624494608e+006 1.012584568009e+006 1.015803676318e+006 1.014636916081e+006 1.015683808230e+006 1.013147143810e+006 1.015765841538e+006 1.018802716660e+006 1.078415579309e+006 1.037245194655e+006 1.018449741340e+006 1.088464206250e+006 1.143664367526e+006 1.017697180569e+006 1.000000000000e+006 1.000000000000e+006 1.000000000000e+006 1.074359213462e+006 1.081041143674e+006 1.089011801632e+006 1.083276709566e+006 1.075572353258e+006 1.121614102600e+006 1.137237455935e+006 1.088007370745e+006 1.137484513899e+006 1.069570065112e+006 1.026137789808e+006 1.024243383973e+006 1.121247497163e+006 1.101399190444e+006 1.022331759492e+006 1.019420032211e+006 1.078505962444e+006 1.021398071823e+006 1.022538218244e+006 1.043480753220e+006 1.031879759502e+006 1.010146161652e+006 1.074748125074e+006 1.000000000000e+006 1.000000000000e+006 1.110992925069e+006 1.000071869827e+006 1.000071866721e+006 1.015550515994e+006 1.101443777490e+006 1.079374057429e+006 1.015069839744e+006 1.091713959852e+006 1.095088752104e+006 1.143338949158e+006 1.012006681231e+006 1.012807082311e+006 1.012289938747e+006 1.063571733834e+006 1.000000000000e+006 1.000000000000e+006 1.051836131436e+006 1.030081287837e+006 1.000000000000e+006 1.137267749236e+006 1.144036770976e+006 1.137373797252e+006 1.017234552437e+006 1.072482435844e+006 1.000000000000e+006 1.112637106187e+006 1.112980176407e+006 1.092959121546e+006 1.023213327570e+006 1.107388917746e+006 1.000246763573e+006 1.000246867059e+006 1.112710870312e+006 1.142204176333e+006 1.036627851720e+006 1.118287422482e+006 1.107028107715e+006 1.140553443088e+006 1.121208260031e+006 1.128829810025e+006 1.086169165940e+006 1.055911832880e+006 1.060401868793e+006 1.100729244573e+006 1.137363100325e+006 1.104927828928e+006 1.137275196368e+006 1.033190242648e+006 1.029818477889e+006 1.121629592735e+006 1.023517810104e+006 1.000000000000e+006 1.019153753598e+006 1.000000000000e+006 1.015603001182e+006 1.094626844385e+006 1.021582826302e+006 1.127406460587e+006 1.019874110415e+006 1.079429760996e+006 1.009605477810e+006 1.105326441797e+006 1.082042358270e+006 1.137291021695e+006 1.137316936737e+006 1.137162558286e+006 1.137531682924e+006 1.000000000000e+006 1.000000000000e+006 1.000000000000e+006 1.000000000000e+006 1.141720097481e+006 1.000000000000e+006 1.000000000000e+006 1.145926287496e+006 1.141356600212e+006 1.137933298641e+006 1.077372260895e+006 1.000000000000e+006 1.089668247983e+006 1.100145055026e+006 1.000099637832e+006 1.000099667114e+006 1.000461168535e+006 1.000461370058e+006 1.137279574912e+006 1.140579518000e+006 1.000961841837e+006 1.000961421132e+006 1.000824615909e+006 1.000824991365e+006 1.141202254577e+006 1.137965661348e+006 
        </DataArray>
        <DataArray type="Float64" Name="MOLAR_FRACTION" format="ascii">