<?xml version="1.0"?>
<VTKFile type="UnstructuredGrid" version="0.1" byte_order="LittleEndian">
  <UnstructuredGrid>
    <Piece NumberOfPoints="963" NumberOfCells="1758">
      <Points>
        <DataArray type="Float64" NumberOfComponents="3" format="ascii">
          1.600262034769e+002 1.257989505921e+001 0.000000000000e+000
          1.635346199106e+002 2.000000000000e+001 0.000000000000e+000
          1.554515002484e+002 2.000000000000e+001 0.000000000000e+000
          3.459306441575e+000 1.667621982453e+001 0.000000000000e+000
          3.062266634850e+000 1.705413688405e+001 0.000000000000e+000
          2.873380769063e+000 1.650527725632e+001 0.000000000000e+000
          1.514088444034e+000 1.865189448105e+001 0.000000000000e+000
          1.967902677551e+000 1.834103489750e+001 0.000000000000e+000
          2.034564522234e+000 1.890806711991e+001 0.000000000000e+000
          2.478275273162e+000 1.702762299110e+001 0.000000000000e+000
          2.952621433467e+000 1.774357373580e+001 0.000000000000e+000
          2.237893542067e+000 1.782457469610e+001 0.000000000000e+000
          3.313583922780e+000 3.274674552047e+000 0.000000000000e+000
          2.561432712787e+000 3.156040447793e+000 0.000000000000e+000
          3.047531989640e+000 2.714594415171e+000 0.000000000000e+000
          2.750804692284e+000 3.936058190693e+000 0.000000000000e+000
          2.599039179818e+000 2.451529939148e+000 0.000000000000e+000
          3.139686649742e+000 2.186924052088e+000 0.000000000000e+000
          1.919984553221e+000 3.358010194268e+000 0.000000000000e+000
          1.960900304591e+000 2.773319745251e+000 0.000000000000e+000
          1.894565400391e+000 1.733316857565e+001 0.000000000000e+000
          0.000000000000e+000 1.538461538461e+001 0.000000000000e+000
          5.816229249735e-001 1.567919247147e+001 0.000000000000e+000
          0.000000000000e+000 1.589743589743e+001 0.000000000000e+000
          9.766405669483e+001 2.000000000000e+001 0.000000000000e+000
          1.010672711393e+002 1.500000000000e+001 0.000000000000e+000
          1.029329279907e+002 2.000000000000e+001 0.000000000000e+000
          9.588503785413e+001 1.500000000000e+001 0.000000000000e+000
          1.039231647117e+002 1.000000000000e+001 0.000000000000e+000
          9.860830811271e+001 1.000000000000e+001 0.000000000000e+000
          1.010672711397e+002 5.000000000000e+000 0.000000000000e+000
          9.766405669557e+001 0.000000000000e+000 0.000000000000e+000
          1.029329279915e+002 0.000000000000e+000 0.000000000000e+000
          9.588503785449e+001 5.000000000000e+000 0.000000000000e+000
          7.892434178002e+001 2.000000000000e+001 0.000000000000e+000
          8.173808356948e+001 1.500000000000e+001 0.000000000000e+000
          8.328058896910e+001 2.000000000000e+001 0.000000000000e+000
          7.679274808893e+001 1.514423393202e+001 0.000000000000e+000
          7.970503892166e+001 1.000000000000e+001 0.000000000000e+000
          8.409930620613e+001 1.000000000000e+001 0.000000000000e+000
          8.173808356980e+001 5.000000000000e+000 0.000000000000e+000
          7.892434178065e+001 0.000000000000e+000 0.000000000000e+000
          8.328058896976e+001 0.000000000000e+000 0.000000000000e+000
          7.679274808925e+001 4.855766067979e+000 0.000000000000e+000
          1.084583939765e+002 2.000000000000e+001 0.000000000000e+000
          1.122011528880e+002 1.500000000000e+001 0.000000000000e+000
          1.142529496098e+002 2.000000000000e+001 0.000000000000e+000
          1.065018792644e+002 1.500000000000e+001 0.000000000000e+000
          1.153419838410e+002 1.000000000000e+001 0.000000000000e+000
          1.094968549120e+002 1.000000000000e+001 0.000000000000e+000
          1.122011528884e+002 5.000000000000e+000 0.000000000000e+000
          1.084583939773e+002 0.000000000000e+000 0.000000000000e+000
          1.142529496106e+002 0.000000000000e+000 0.000000000000e+000
          1.065018792648e+002 5.000000000000e+000 0.000000000000e+000
          1.181779812237e+002 1.500000000000e+001 0.000000000000e+000
          1.203297004775e+002 2.000000000000e+001 0.000000000000e+000
          1.214717707847e+002 1.000000000000e+001 0.000000000000e+000
          1.181779812242e+002 5.000000000000e+000 0.000000000000e+000
          1.203297004784e+002 0.000000000000e+000 0.000000000000e+000
          7.477039199538e+001 2.000000000000e+001 0.000000000000e+000
          7.551483469771e+001 1.000000000000e+001 0.000000000000e+000
          7.296959467356e+001 1.385646386579e+001 0.000000000000e+000
          7.477039199599e+001 0.000000000000e+000 0.000000000000e+000
          7.296959467379e+001 6.143536134207e+000 0.000000000000e+000
          6.918477198508e+001 1.366665532880e+001 0.000000000000e+000
          6.746477463053e+001 1.000000000000e+001 0.000000000000e+000
          7.151921701478e+001 1.000000000000e+001 0.000000000000e+000
          6.918477198529e+001 6.333344671202e+000 0.000000000000e+000
          9.263986346551e+001 2.000000000000e+001 0.000000000000e+000
          9.094345943471e+001 1.500000000000e+001 0.000000000000e+000
          9.354026529380e+001 1.000000000000e+001 0.000000000000e+000
          9.263986346623e+001 0.000000000000e+000 0.000000000000e+000
          9.094345943506e+001 5.000000000000e+000 0.000000000000e+000
          1.244344522558e+002 1.503312574389e+001 0.000000000000e+000
          1.267023895482e+002 2.000000000000e+001 0.000000000000e+000
          1.285510028831e+002 1.020485663255e+001 0.000000000000e+000
          1.244344522563e+002 5.033125743893e+000 0.000000000000e+000
          1.267023895491e+002 0.000000000000e+000 0.000000000000e+000
          8.623136018348e+001 1.500000000000e+001 0.000000000000e+000
          8.784898578901e+001 2.000000000000e+001 0.000000000000e+000
          8.870757443665e+001 1.000000000000e+001 0.000000000000e+000
          8.623136018382e+001 5.000000000000e+000 0.000000000000e+000
          8.784898578969e+001 0.000000000000e+000 0.000000000000e+000
          4.872472752737e+000 0.000000000000e+000 0.000000000000e+000
          4.204479229380e+000 6.412840757122e-001 0.000000000000e+000
          4.157376851380e+000 0.000000000000e+000 0.000000000000e+000
          5.192892237051e+000 7.280355562789e-001 0.000000000000e+000
          1.306630304579e+000 6.212843344151e-001 0.000000000000e+000
          1.050228457081e+000 0.000000000000e+000 0.000000000000e+000
          1.614006202528e+000 0.000000000000e+000 0.000000000000e+000
          1.266763055794e+001 1.554696422866e+001 0.000000000000e+000
          1.263589100638e+001 1.657720348306e+001 0.000000000000e+000
          1.174268578662e+001 1.633018318031e+001 0.000000000000e+000
          6.588835695415e+000 7.505681085529e+000 0.000000000000e+000
          6.456871838389e+000 6.658671683861e+000 0.000000000000e+000
          7.208099140752e+000 7.038822846307e+000 0.000000000000e+000
          4.412623338166e+000 9.138856431549e+000 0.000000000000e+000
          4.024185797397e+000 8.708923235630e+000 0.000000000000e+000
          4.601447447338e+000 8.507292699647e+000 0.000000000000e+000
          5.325995059827e-001 6.308307298123e+000 0.000000000000e+000
          0.000000000000e+000 6.666666666655e+000 0.000000000000e+000
          0.000000000000e+000 6.153846153835e+000 0.000000000000e+000
          3.986461521768e+000 8.146114708182e+000 0.000000000000e+000
          2.411603373059e+000 6.510912162016e+000 0.000000000000e+000
          1.807525763324e+000 6.938080373464e+000 0.000000000000e+000
          1.686779352680e+000 6.178928843543e+000 0.000000000000e+000
          2.510760620997e+000 7.229076682239e+000 0.000000000000e+000
          3.166991983438e+000 6.906135870389e+000 0.000000000000e+000
          3.452788915829e+000 6.276851216781e+000 0.000000000000e+000
          3.340122000742e+000 5.656365440432e+000 0.000000000000e+000
          4.047936562877e+000 5.873561587395e+000 0.000000000000e+000
          1.802463974828e+000 1.292744708026e+001 0.000000000000e+000
          1.383967161336e+000 1.330299552906e+001 0.000000000000e+000
          1.329690820161e+000 1.266495373033e+001 0.000000000000e+000
          2.267922292389e+000 1.431116835808e+001 0.000000000000e+000
          2.854613987538e+000 1.466581611369e+001 0.000000000000e+000
          2.339869278674e+000 1.493776402241e+001 0.000000000000e+000
          4.690956878046e+000 3.115726773737e+000 0.000000000000e+000
          4.014773718330e+000 2.850429494150e+000 0.000000000000e+000
          4.643493383296e+000 2.293565471327e+000 0.000000000000e+000
          5.186083944243e+000 1.661927139510e+000 0.000000000000e+000
          5.452965511439e+000 2.679881546544e+000 0.000000000000e+000
          5.360460104304e+000 3.539902157655e+000 0.000000000000e+000
          6.197986304192e+000 3.115706366113e+000 0.000000000000e+000
          7.929356606585e-001 1.634705420870e+001 0.000000000000e+000
          1.222819867503e+000 1.599517159419e+001 0.000000000000e+000
          1.215723647926e+000 1.546209040954e+001 0.000000000000e+000
          1.770601276021e+000 1.521217632514e+001 0.000000000000e+000
          1.242830150061e+000 1.493919370237e+001 0.000000000000e+000
          1.166444124506e+000 4.610115997312e+000 0.000000000000e+000
          1.851620547934e+000 4.486892013458e+000 0.000000000000e+000
          1.494152702314e+000 5.145235789232e+000 0.000000000000e+000
          1.353088107040e+000 4.090803091641e+000 0.000000000000e+000
          3.802567455935e+000 5.084697985980e+000 0.000000000000e+000
          1.014840185783e+000 5.494768572296e+000 0.000000000000e+000
          8.831064584820e-001 5.109311190608e+000 0.000000000000e+000
          1.727903958959e+000 1.618384478933e+001 0.000000000000e+000
          1.343261525342e+000 1.651800241408e+001 0.000000000000e+000
          3.308120627291e+000 8.593311644828e+000 0.000000000000e+000
[...]
      <PointData Scalars="LIQUID_PRESSURE">
        <DataArray type="Float64" Name="LIQUID_PRESSURE" format="ascii">
          1.000000000000e+006 1.000000000000e+006 1.000000000000e+006 1.194596086421e+006 1.197898252835e+006 1.199400180444e+006 1.205412108292e+006 1.204569383331e+006 1.204321443777e+006 1.202122606223e+006 1.198803138334e+006 1.203427957874e+006 1.195886768646e+006 1.201613700840e+006 1.198027182980e+006 1.200286322146e+006 1.201332435568e+006 1.197312618808e+006 1.204724263873e+006 1.204640139573e+006 1.204804996821e+006 1.214917888369e+006 1.207325459450e+006 1.214900027701e+006 1.000000000000e+006 1.000000000000e+006 1.000000000000e+006 1.000000000000e+006 1.000000000000e+006 1.000000000000e+006 1.000000000000e+006 1.000000000000e+006 1.000000000000e+006 1.000000000000e+006 1.000000000542e+006 1.000000000140e+006 1.000000000084e+006 1.000000001268e+006 1.000000000344e+006 1.000000000049e+006 1.000000000140e+006 1.000000000542e+006 1.000000000084e+006 1.000000001268e+006 1.000000000000e+006 1.000000000000e+006 1.000000000000e+006 1.000000000000e+006 1.000000000000e+006 1.000000000000e+006 1.000000000000e+006 1.000000000000e+006 1.000000000000e+006 1.000000000000e+006 1.000000000000e+006 1.000000000000e+006 1.000000000000e+006 1.000000000000e+006 1.000000000000e+006 1.000000003075e+006 1.000000002147e+006 1.000000006195e+006 1.000000003075e+006 1.000000006194e+006 1.000000028611e+006 1.000000054649e+006 1.000000010972e+006 1.000000028610e+006 1.000000000001e+006 1.000000000002e+006 1.000000000001e+006 1.000000000001e+006 1.000000000002e+006 1.000000000000e+006 1.000000000000e+006 1.000000000000e+006 1.000000000000e+006 1.000000000000e+006 1.000000000018e+006 1.000000000011e+006 1.000000000006e+006 1.000000000018e+006 1.000000000011e+006 1.180625500210e+006 1.187679708616e+006 1.188060110972e+006 1.177073278608e+006 1.205457480351e+006 1.205390256143e+006 1.205349904295e+006 1.081161144483e+006 1.081552269792e+006 1.091696613529e+006 1.159807592594e+006 1.161548767219e+006 1.151572877398e+006 1.185524185196e+006 1.189388744146e+006 1.183569755342e+006 1.207922629028e+006 1.214884471816e+006 1.214970178898e+006 1.189783919185e+006 1.202624015442e+006 1.205104293070e+006 1.205292635878e+006 1.201984366409e+006 1.197139883616e+006 1.194646268581e+006 1.195654742350e+006 1.189198619876e+006 1.204968134775e+006 1.205512648632e+006 1.205489099232e+006 1.203289975743e+006 1.199526404235e+006 1.202916380821e+006 1.182611741711e+006 1.189491432991e+006 1.183115744029e+006 1.177139694951e+006 1.174023543647e+006 1.175108297971e+006 1.164867981484e+006 1.206043715997e+006 1.205360969172e+006 1.205407865546e+006 1.205117061239e+006 1.205504777006e+006 1.205535385672e+006 1.204948727487e+006 1.205452822570e+006 1.205482981383e+006 1.191500380915e+006 1.205573118421e+006 1.205659001831e+006 1.205130416589e+006 1.205467037762e+006 1.195909453242e+006 1.200830781969e+006 1.197381630675e+006 1.205977800963e+006 1.206051876068e+006 1.205456730515e+006 1.206049559968e+006 1.205700729799e+006 1.205479214792e+006 1.199015138109e+006 1.205951837714e+006 1.199183690942e+006 1.201529631937e+006 1.210234162645e+006 1.214869186398e+006 1.205470589900e+006 1.205203672188e+006 1.203878585306e+006 1.189080963727e+006 1.180624639401e+006 1.177380683476e+006 1.171998054726e+006 1.167395046707e+006 1.205458288359e+006 1.205468266615e+006 1.205752954123e+006 1.205605300654e+006 1.205198327270e+006 1.214902047928e+006 1.210008411937e+006 1.214851472793e+006 1.203104507520e+006 1.191604013933e+006 1.187701773550e+006 1.205409563716e+006 1.205442333583e+006 1.200920338842e+006 1.197190826380e+006 1.200163840861e+006 1.209654670548e+006 1.214979645632e+006 1.205354691185e+006 1.204833151924e+006 1.204943455012e+006 1.198391361875e+006 1.202182249378e+006 1.205899657888e+006 1.206502249953e+006 1.197117254262e+006 1.193952059547e+006 1.205134579618e+006 1.203289248560e+006 1.165881049878e+006 1.155918185515e+006 1.203543012363e+006 1.203174206832e+006 1.205478829189e+006 1.203252079942e+006 1.205411846948e+006 1.201772050595e+006 1.193638882351e+006 1.193792245110e+006 1.187984338486e+006 1.204585134971e+006 1.205199589002e+006 1.205429424759e+006 1.205517334048e+006 1.205299738065e+006 1.205355546247e+006 1.196566054676e+006 1.197397324127e+006 1.205451037651e+006 1.205477517277e+006 1.205361701286e+006 1.204053283217e+006 1.000000124134e+006 1.000000124129e+006 1.200854368477e+006 1.203402088763e+006 1.205405695909e+006 1.137514378693e+006 1.145560229791e+006 1.131183499837e+006 1.192174329261e+006 1.185668281902e+006 1.205414700849e+006 1.205407213325e+006 1.205703355094e+006 1.204946213753e+006 1.201982897694e+006 1.205741364080e+006 1.204612483844e+006 1.205314659738e+006 1.205135088315e+006 1.200630013634e+006 1.194008047627e+006 1.207016735697e+006 1.192773390875e+006 1.204961300200e+006 1.205143258475e+006 1.195545828525e+006 1.203575543474e+006 1.205355563600e+006 1.207520808723e+006 1.207747613194e+006 1.214876051862e+006 1.214824036521e+006 1.214965102899e+006 1.214885577772e+006 1.208833587508e+006 1.214723247415e+006 1.208951626394e+006 1.205458228264e+006 1.206881766002e+006 1.214623255831e+006 1.210949600103e+006 1.214809516810e+006 1.214860522199e+006 1.208532963796e+006 1.214896275876e+006 1.208144542666e+006 1.214894575538e+006 1.209634096640e+006 1.214890290316e+006 1.214886705739e+006 1.000000906776e+006 1.000000310081e+006 1.000000268107e+006 1.000001397434e+006 1.000000253379e+006 1.000000863416e+006 1.000000310056e+006 1.000000906701e+006 1.000000268084e+006 1.000001397329e+006 1.000000253363e+006 1.000000863365e+006 1.000007561552e+006 1.000004137543e+006 1.000002724499e+006 1.000011069823e+006 1.000002604634e+006 1.000007256098e+006 1.000004137254e+006 1.000007561007e+006 1.000002724288e+006 1.000011069107e+006 1.000002604490e+006 1.000007255726e+006 1.001184071937e+006 1.000859700104e+006 1.000689026174e+006 1.001448581479e+006 1.000672300012e+006 1.001158148423e+006 1.000859669781e+006 1.001184029205e+006 1.000688998447e+006 1.001448536098e+006 1.000672281297e+006 1.001158120232e+006 1.000380972036e+006 1.000259628696e+006 1.000199138967e+006 1.000485436034e+006 1.000193370992e+006 1.000370843397e+006 1.000259617241e+006 1.000380954953e+006 1.000199129047e+006 1.000485416839e+006 1.000193364190e+006 1.000370831739e+006 1.004622241473e+006 1.003751469709e+006 1.003059519022e+006 1.005466920699e+006 1.003751370866e+006 1.004622115596e+006 1.003059429604e+006 1.005466789588e+006 1.000097880174e+006 1.000061807223e+006 1.000044977240e+006 1.000130856697e+006 1.000043437347e+006 1.000094796963e+006 1.000061803881e+006 1.000097874779e+006 1.000044974512e+006 1.000130850287e+006 1.000043435476e+006 1.000094793260e+006 1.000019200479e+006 1.000027192565e+006 1.000018486326e+006 1.000019199205e+006 1.000027190952e+006 1.000018485455e+006 1.001943186959e+006 1.002535196292e+006 1.001905597186e+006 1.001943123859e+006 1.002535127810e+006 1.001905557427e+006 1.003026353836e+006 1.003026301472e+006 1.000013050425e+006 1.000023408995e+006 1.000009397230e+006 1.000031597470e+006 1.000013050082e+006 1.000031596708e+006 1.000537860947e+006 1.000778316973e+006 1.000436060295e+006 1.000943548467e+006 1.000537852578e+006 1.000943535710e+006 1.000004955097e+006 1.000003455915e+006 1.000004954956e+006 1.004103049068e+006 1.004593441464e+006 1.004593503634e+006 1.004103081868e+006 1.000053874715e+006 1.000070865621e+006 1.000070864071e+006 1.000290695248e+006 1.000231152685e+006 1.000290690127e+006 1.000148193438e+006 1.000115344007e+006 1.000148190515e+006 1.002529071443e+006 1.002529097283e+006 1.001320308103e+006 1.001576975218e+006 1.001576957173e+006 1.000001707173e+006 1.000001147630e+006 1.000001707120e+006 1.002271481488e+006 1.000000475839e+006 1.000000217319e+006 1.000000475824e+006 1.000000058311e+006 1.000000086061e+006 1.000000058316e+006 1.000000086067e+006 1.148157011850e+006 1.139399466458e+006 1.151219592286e+006 1.135039322036e+006 1.199777333205e+006 1.201023914734e+006 1.203581286366e+006 1.199769751903e+006 1.203548520689e+006 1.180897931529e+006 1.178812146328e+006 1.205397382766e+006 1.208007657855e+006 1.170016711313e+006 1.000000000000e+006 1.000000000000e+006 1.000000000000e+006 1.162161599260e+006 1.151225737363e+006 1.154907250151e+006 1.160378689517e+006 1.190364689342e+006 1.201647806190e+006 1.205474630073e+006 1.190096797138e+006 1.205402907018e+006 1.202951203756e+006 1.205150543751e+006 1.148226836166e+006 1.147641984123e+006 1.135701076292e+006 1.203075327903e+006 1.198491049816e+006 1.214853667611e+006 1.208174032798e+006 1.214943662604e+006 1.139382472536e+006 1.148696489164e+006 1.148722186300e+006 1.154534976442e+006 1.141664346003e+006 1.161502638078e+006 1.135046566700e+006 1.122313963983e+006 1.128927479107e+006 1.135034229345e+006 1.207085155419e+006 1.189743062902e+006 1.191630266392e+006 1.195905169397e+006 1.135372908789e+006 1.128749291190e+006 1.121625176082e+006 1.116316729244e+006 1.193895102163e+006 1.199709170678e+006 1.095453458143e+006 1.093141175484e+006 1.104324019706e+006 1.154324788819e+006 1.160811268770e+006 1.081407147046e+006 1.095723856493e+006 1.088088027971e+006 1.186337080757e+006 1.171685805750e+006 1.165879173185e+006 1.068644291116e+006 1.069921314474e+006 1.205275534405e+006 1.205390406826e+006 1.148063789293e+006 1.160006499326e+006 1.143672316787e+006 1.147329546019e+006 1.135139045406e+006 1.133988691730e+006 1.170628350380e+006 1.110568771171e+006 1.116408174363e+006 1.093283144240e+006 1.085027467442e+006 1.079674664114e+006 1.122639756783e+006 1.076591742197e+006 1.085853398627e+006 1.088724643621e+006 1.072304434032e+006 1.187151897289e+006 1.189953958577e+006 1.109968656176e+006 1.119602051749e+006 1.175441318156e+006 1.196073922904e+006 1.180923271339e+006 1.183106302033e+006 1.205378957801e+006 1.205517210617e+006 1.200956050263e+006 1.203893478344e+006 1.165516785150e+006 1.170780162870e+006 1.133649202045e+006 1.125935426887e+006 1.120985692793e+006 1.140050173920e+006 1.128314637349e+006 1.120732936945e+006 1.137130895785e+006 1.166692156329e+006 1.167028001709e+006 1.173120653890e+006 1.141771644756e+006 1.180434766227e+006 1.158212182235e+006 1.179293796043e+006 1.174897444405e+006 1.108603912904e+006 1.096722168151e+006 1.104237586157e+006 1.186317772144e+006 1.192652804222e+006 1.175614711821e+006 1.130137785669e+006 1.182709547689e+006 1.099886214334e+006 1.105590935087e+006 1.205637604450e+006 1.208141955185e+006 1.184669586215e+006 1.179153249595e+006 1.185064872551e+006 1.158117803464e+006 1.182325852880e+006 1.141920197806e+006 1.130721030833e+006 1.204620046420e+006 1.194900442019e+006 1.197920021446e+006 1.189341121432e+006 1.151954937507e+006 1.147941200808e+006 1.151133490947e+006 1.158616623173e+006 1.179083567280e+006 1.205129969774e+006 1.202763006294e+006 1.114245591906e+006 1.120676405523e+006 1.123461674437e+006 1.111033009372e+006 1.167200232004e+006 1.097590937042e+006 1.084073468261e+006 1.088173037065e+006 1.169121443593e+006 1.186339913134e+006 1.203793081671e+006 1.145560664381e+006 1.114091820676e+006 1.109054725946e+006 1.101718658379e+006 1.120993218870e+006 1.120907092884e+006 1.203967636721e+006 1.205102521766e+006 1.200042463938e+006 1.104790850515e+006 1.099112574967e+006 1.156831619879e+006 1.164675327655e+006 1.165394062462e+006 1.108315510981e+006 1.120171118900e+006 1.116217594136e+006 1.204090689840e+006 1.205333863254e+006 1.209833936560e+006 1.190327274774e+006 1.192264513567e+006 1.113132795509e+006 1.127852528351e+006 1.173509560527e+006 1.205389740504e+006 1.206960086358e+006 1.131628528486e+006 1.121980847810e+006 1.125451521521e+006 1.200344460608e+006 1.151626560619e+006 1.183555907786e+006 1.110356285518e+006 1.172822846738e+006 1.202253210324e+006 1.199307036274e+006 1.204359997458e+006 1.140689937219e+006 1.098699493396e+006 1.199583050494e+006 1.195796372590e+006 1.130379108818e+006 1.090695621157e+006 1.101110047970e+006 1.197685030432e+006 1.207945376026e+006 1.209425204434e+006 1.116116614472e+006 1.110680264220e+006 1.103292149376e+006 1.000000000000e+006 1.000000000000e+006 1.000000000000e+006 1.138822755763e+006 1.208370176588e+006 1.202106267363e+006 1.201137885317e+006 1.198119713387e+006 1.184428120294e+006 1.139183103948e+006 1.194396832323e+006 1.183357858530e+006 1.178852963652e+006 1.000000019889e+006 1.000000019890e+006 1.208229717428e+006 1.214877369657e+006 1.205206116180e+006 1.178955314123e+006 1.123334366000e+006 1.171560544963e+006 1.129235089245e+006 1.205900599797e+006 1.154468008504e+006 1.205412766952e+006 1.105779436648e+006 1.107897380821e+006 1.148642862562e+006 1.000000000000e+006 1.000000000000e+006 1.189347704703e+006 1.172487450428e+006 1.175560229123e+006 1.166173613819e+006 1.142202302792e+006 1.207314665648e+006 1.006300889379e+006 1.006097569984e+006 1.006300843074e+006 1.006097550415e+006 1.194614683696e+006 1.206469445010e+006 1.143139333694e+006 1.205308968098e+006 1.005591104919e+006 1.004804234369e+006 1.003791865671e+006 1.004804245594e+006 1.099541653318e+006 1.090938941162e+006 1.205413346907e+006 1.106195777518e+006 1.192788271303e+006 1.196554532920e+006 1.188328842878e+006 1.185270773999e+006 1.205538524850e+006 1.205427516745e+006 1.204068429205e+006 1.205465774527e+006 1.082513964285e+006 1.096308585377e+006 1.000000000000e+006 1.000000000000e+006 1.209175341145e+006 1.204354160019e+006 1.190072107755e+006 1.202043229166e+006 1.133235603725e+006 1.209016750227e+006 1.142402232489e+006 1.000000014597e+006 1.000000014595e+006 1.074293800873e+006 1.164340964696e+006 1.062409495769e+006 1.055743096488e+006 1.051042823333e+006 1.099353206323e+006 1.188387560570e+006 1.191172396311e+006 1.086458928988e+006 1.000000000000e+006 1.000000000000e+006 1.076015990258e+006 1.214877361130e+006 1.214791520002e+006 1.089314089416e+006 1.214796447074e+006 1.209384111487e+006 1.214929459942e+006 1.094326340951e+006 1.009388816932e+006 1.007635343878e+006 1.007360054001e+006 1.011229792390e+006 1.010509416924e+006 1.007635341152e+006 1.011229758249e+006 1.010509372294e+006 1.012877048408e+006 1.015221700627e+006 1.013766098784e+006 1.015221680892e+006 1.013765946314e+006 1.017249212808e+006 1.020113864236e+006 1.018333377995e+006 1.020113356483e+006 1.018333651007e+006 1.022561659768e+006 1.025991675172e+006 1.023861714773e+006 1.025987187346e+006 1.023861477852e+006 1.028881094231e+006 1.032938669292e+006 1.030415218013e+006 1.032911230346e+006 1.030408633654e+006 1.036265069687e+006 1.041115424252e+006 1.038088910357e+006 1.040981686559e+006 1.038032019125e+006 1.008392862477e+006 1.008676578052e+006 1.011411841531e+006 1.012404641697e+006 1.008676579038e+006 1.008392914422e+006 1.011411839029e+006 1.012404573765e+006 1.015440425935e+006 1.016677624317e+006 1.015440555711e+006 1.016677706933e+006 1.020380272729e+006 1.021877180307e+006 1.020380614779e+006 1.021876378286e+006 1.026300910903e+006 1.028087903526e+006 1.026301198424e+006 1.028080009480e+006 1.019338564541e+006 1.022878362805e+006 1.017535430233e+006 1.025011983843e+006 1.016212252247e+006 1.021838351507e+006 1.022879870438e+006 1.019339308349e+006 1.017536172012e+006 1.025013325976e+006 1.016212559488e+006 1.021838618471e+006 1.029241125546e+006 1.031799497111e+006 1.028046598519e+006 1.029244579907e+006 1.031802321061e+006 1.028046250851e+006 1.036650147872e+006 1.039842389777e+006 1.035391168939e+006 1.036658262587e+006 1.039851811284e+006 1.035386415067e+006 1.045125185747e+006 1.049839293883e+006 1.043268267419e+006 1.045137140647e+006 1.049759961440e+006 1.043765998138e+006 1.054646188832e+006 1.060573951842e+006 1.054652438415e+006 1.059944839857e+006 1.033271039529e+006 1.035420243168e+006 1.033268018534e+006 1.035370226301e+006 1.010160729722e+006 1.006369597152e+006 1.008075617795e+006 1.010160837858e+006 1.006369694533e+006 1.008075798319e+006 1.013786438196e+006 1.011805340373e+006 1.013786514125e+006 1.011805595634e+006 1.018373605695e+006 1.018373578657e+006 1.023914427095e+006 1.023914144543e+006 1.030528590563e+006 1.030527697699e+006 1.113971291031e+006 1.126955989334e+006 1.114171400284e+006 1.208379260937e+006 1.038439748614e+006 1.038436772747e+006 1.065168511069e+006 1.065171206454e+006 1.044799321477e+006 1.050882281409e+006 1.047262002479e+006 1.050448143389e+006 1.046836932063e+006 1.041404147328e+006 1.044169000926e+006 1.041374038637e+006 1.043907596721e+006 1.046438723600e+006 1.101305520810e+006 1.047278638493e+006 1.114162411387e+006 1.126952207942e+006 1.071657078259e+006 1.076593191072e+006 1.050819437733e+006 1.058332538846e+006 1.054233462286e+006 1.054000072261e+006 1.054765973182e+006 1.059913558211e+006 1.059758318851e+006 1.061441161061e+006 1.058771452684e+006 1.066808097404e+006 1.063933453098e+006 1.066537862085e+006 1.060178546305e+006 1.066731841274e+006 1.073698594524e+006 1.158708031199e+006 1.107958850713e+006 1.072910292865e+006 1.168081502678e+006 1.208095602770e+006 1.071194252344e+006 1.000000000000e+006 1.000000000000e+006 1.000000000000e+006 1.154646428250e+006 1.161234023269e+006 1.168552276085e+006 1.163329535237e+006 1.155888156887e+006 1.194457185770e+006 1.214873675885e+006 1.167661208441e+006 1.214780091191e+006 1.149661637897e+006 1.088694151358e+006 1.085029271226e+006 1.194200777231e+006 1.179034310658e+006 1.081188582898e+006 1.075052064360e+006 1.158759529895e+006 1.079195132864e+006 1.081602458176e+006 1.117336250696e+006 1.099059681903e+006 1.052027764888e+006 1.155030809294e+006 1.000000006319e+006 1.000000006320e+006 1.186571188713e+006 1.003389459939e+006 1.003389445871e+006 1.066124012165e+006 1.179097773484e+006 1.159608054928e+006 1.065002648021e+006 1.170937446462e+006 1.173835833235e+006 1.205413690156e+006 1.057182429278e+006 1.059293211287e+006 1.057968514848e+006 1.143101998751e+006 1.000000000000e+006 1.000000000000e+006 1.128859503883e+006 1.095987871557e+006 1.000000000000e+006 1.215010595702e+006 1.207716015943e+006 1.214866114986e+006 1.070160716990e+006 1.152716517540e+006 1.000000000000e+006 1.187843360879e+006 1.188074006004e+006 1.171993516711e+006 1.082964221878e+006 1.183802572055e+006 1.006744238630e+006 1.006744418228e+006 1.187889436223e+006 1.209508996747e+006 1.106963969283e+006 1.192034524884e+006 1.183503142848e+006 1.211270603638e+006 1.194167353399e+006 1.199458962790e+006 1.165995840086e+006 1.133949080785e+006 1.139403197764e+006 1.178528596917e+006 1.214845579613e+006 1.181877667729e+006 1.214840958584e+006 1.101311775445e+006 1.095434323459e+006 1.194487808009e+006 1.083551508797e+006 1.000000000000e+006 1.074443202258e+006 1.000000000000e+006 1.066287572304e+006 1.173409543893e+006 1.079640162801e+006 1.198556212010e+006 1.075954417921e+006 1.159640773028e+006 1.050452995865e+006 1.182155414578e+006 1.162153691328e+006 1.214985084247e+006 1.214888118854e+006 1.214834439838e+006 1.214759434880e+006 1.000000000000e+006 1.000000000000e+006 1.000000000000e+006 1.000000000000e+006 1.209947184315e+006 1.000000000000e+006 1.000000000000e+006 1.205970942241e+006 1.210350699076e+006 1.214410672032e+006 1.157620606800e+006 1.000000000000e+006 1.169154996696e+006 1.178018263726e+006 1.004087213786e+006 1.004087299630e+006 1.009528324758e+006 1.009528591722e+006 1.214868439160e+006 1.211246877722e+006 1.014235331620e+006 1.014234894530e+006 1.013094050584e+006 1.013094466091e+006 1.210470498127e+006 1.214396929881e+006 
        </DataArray>
        <DataArray type="Float64" Name="MOLAR_FRACTION" format="ascii">