<?xml version="1.0"?>
<VTKFile type="UnstructuredGrid" version="0.1" byte_order="LittleEndian">
  <UnstructuredGrid>
    <Piece NumberOfPoints="963" NumberOfCells="1758">
      <Points>
        <DataArray type="Float64" NumberOfComponents="3" format="ascii">
          1.600262034769e+002 1.257989505921e+001 0.000000000000e+000
          1.635346199106e+002 2.000000000000e+001 0.000000000000e+000
          1.554515002484e+002 2.000000000000e+001 0.000000000000e+000
          3.459306441575e+000 1.667621982453e+001 0.000000000000e+000
          3.062266634850e+000 1.705413688405e+001 0.000000000000e+000
          2.873380769063e+000 1.650527725632e+001 0.000000000000e+000
          1.514088444034e+000 1.865189448105e+001 0.000000000000e+000
          1.967902677551e+000 1.834103489750e+001 0.000000000000e+000
          2.034564522234e+000 1.890806711991e+001 0.000000000000e+000
          2.478275273162e+000 1.702762299110e+001 0.000000000000e+000
          2.952621433467e+000 1.774357373580e+001 0.000000000000e+000
          2.237893542067e+000 1.782457469610e+001 0.000000000000e+000
          3.313583922780e+000 3.274674552047e+000 0.000000000000e+000
          2.561432712787e+000 3.156040447793e+000 0.000000000000e+000
          3.047531989640e+000 2.714594415171e+000 0.000000000000e+000
          2.750804692284e+000 3.936058190693e+000 0.000000000000e+000
          2.599039179818e+000 2.451529939148e+000 0.000000000000e+000
          3.139686649742e+000 2.186924052088e+000 0.000000000000e+000
          1.919984553221e+000 3.358010194268e+000 0.000000000000e+000
          1.960900304591e+000 2.773319745251e+000 0.000000000000e+000
          1.894565400391e+000 1.733316857565e+001 0.000000000000e+000
          0.000000000000e+000 1.538461538461e+001 0.000000000000e+000
          5.816229249735e-001 1.567919247147e+001 0.000000000000e+000
          0.000000000000e+000 1.589743589743e+001 0.000000000000e+000
          9.766405669483e+001 2.000000000000e+001 0.000000000000e+000
          1.010672711393e+002 1.500000000000e+001 0.000000000000e+000
          1.029329279907e+002 2.000000000000e+001 0.000000000000e+000
          9.588503785413e+001 1.500000000000e+001 0.000000000000e+000
          1.039231647117e+002 1.000000000000e+001 0.000000000000e+000
          9.860830811271e+001 1.000000000000e+001 0.000000000000e+000
          1.010672711397e+002 5.000000000000e+000 0.000000000000e+000
          9.766405669557e+001 0.000000000000e+000 0.000000000000e+000
          1.029329279915e+002 0.000000000000e+000 0.000000000000e+000
          9.588503785449e+001 5.000000000000e+000 0.000000000000e+000
          7.892434178002e+001 2.000000000000e+001 0.000000000000e+000
          8.173808356948e+001 1.500000000000e+001 0.000000000000e+000
          8.328058896910e+001 2.000000000000e+001 0.000000000000e+000
          7.679274808893e+001 1.514423393202e+001 0.000000000000e+000
          7.970503892166e+001 1.000000000000e+001 0.000000000000e+000
          8.409930620613e+001 1.000000000000e+001 0.000000000000e+000
          8.173808356980e+001 5.000000000000e+000 0.000000000000e+000
          7.892434178065e+001 0.000000000000e+000 0.000000000000e+000
          8.328058896976e+001 0.000000000000e+000 0.000000000000e+000
          7.679274808925e+001 4.855766067979e+000 0.000000000000e+000
          1.084583939765e+002 2.000000000000e+001 0.000000000000e+000
          1.122011528880e+002 1.500000000000e+001 0.000000000000e+000
          1.142529496098e+002 2.000000000000e+001 0.000000000000e+000
          1.065018792644e+002 1.500000000000e+001 0.000000000000e+000
          1.153419838410e+002 1.000000000000e+001 0.000000000000e+000
          1.094968549120e+002 1.000000000000e+001 0.000000000000e+000
          1.122011528884e+002 5.000000000000e+000 0.000000000000e+000
          1.084583939773e+002 0.000000000000e+000 0.000000000000e+000
          1.142529496106e+002 0.000000000000e+000 0.000000000000e+000
          1.065018792648e+002 5.000000000000e+000 0.000000000000e+000
          1.181779812237e+002 1.500000000000e+001 0.000000000000e+000
          1.203297004775e+002 2.000000000000e+001 0.000000000000e+000
          1.214717707847e+002 1.000000000000e+001 0.000000000000e+000
          1.181779812242e+002 5.000000000000e+000 0.000000000000e+000
          1.203297004784e+002 0.000000000000e+000 0.000000000000e+000
          7.477039199538e+001 2.000000000000e+001 0.000000000000e+000
          7.551483469771e+001 1.000000000000e+001 0.000000000000e+000
          7.296959467356e+001 1.385646386579e+001 0.000000000000e+000
          7.477039199599e+001 0.000000000000e+000 0.000000000000e+000
          7.296959467379e+001 6.143536134207e+000 0.000000000000e+000
          6.918477198508e+001 1.366665532880e+001 0.000000000000e+000
          6.746477463053e+001 1.000000000000e+001 0.000000000000e+000
          7.151921701478e+001 1.000000000000e+001 0.000000000000e+000
          6.918477198529e+001 6.333344671202e+000 0.000000000000e+000
          9.263986346551e+001 2.000000000000e+001 0.000000000000e+000
          9.094345943471e+001 1.500000000000e+001 0.000000000000e+000
          9.354026529380e+001 1.000000000000e+001 0.000000000000e+000
          9.263986346623e+001 0.000000000000e+000 0.000000000000e+000
          9.094345943506e+001 5.000000000000e+000 0.000000000000e+000
          1.244344522558e+002 1.503312574389e+001 0.000000000000e+000
          1.267023895482e+002 2.000000000000e+001 0.000000000000e+000
          1.285510028831e+002 1.020485663255e+001 0.000000000000e+000
          1.244344522563e+002 5.033125743893e+000 0.000000000000e+000
          1.267023895491e+002 0.000000000000e+000 0.000000000000e+000
          8.623136018348e+001 1.500000000000e+001 0.000000000000e+000
          8.784898578901e+001 2.000000000000e+001 0.000000000000e+000
          8.870757443665e+001 1.000000000000e+001 0.000000000000e+000
          8.623136018382e+001 5.000000000000e+000 0.000000000000e+000
          8.784898578969e+001 0.000000000000e+000 0.000000000000e+000
          4.872472752737e+000 0.000000000000e+000 0.000000000000e+000
          4.204479229380e+000 6.412840757122e-001 0.000000000000e+000
          4.157376851380e+000 0.000000000000e+000 0.000000000000e+000
          5.192892237051e+000 7.280355562789e-001 0.000000000000e+000
          1.306630304579e+000 6.212843344151e-001 0.000000000000e+000
          1.050228457081e+000 0.000000000000e+000 0.000000000000e+000
          1.614006202528e+000 0.000000000000e+000 0.000000000000e+000
          1.266763055794e+001 1.554696422866e+001 0.000000000000e+000
          1.263589100638e+001 1.657720348306e+001 0.000000000000e+000
          1.174268578662e+001 1.633018318031e+001 0.000000000000e+000
          6.588835695415e+000 7.505681085529e+000 0.000000000000e+000
          6.456871838389e+000 6.658671683861e+000 0.000000000000e+000
          7.208099140752e+000 7.038822846307e+000 0.000000000000e+000
          4.412623338166e+000 9.138856431549e+000 0.000000000000e+000
          4.024185797397e+000 8.708923235630e+000 0.000000000000e+000
          4.601447447338e+000 8.507292699647e+000 0.000000000000e+000
          5.325995059827e-001 6.308307298123e+000 0.000000000000e+000
          0.000000000000e+000 6.666666666655e+000 0.000000000000e+000
          0.000000000000e+000 6.153846153835e+000 0.000000000000e+000
          3.986461521768e+000 8.146114708182e+000 0.000000000000e+000
          2.411603373059e+000 6.510912162016e+000 0.000000000000e+000
          1.807525763324e+000 6.938080373464e+000 0.000000000000e+000
          1.686779352680e+000 6.178928843543e+000 0.000000000000e+000
          2.510760620997e+000 7.229076682239e+000 0.000000000000e+000
          3.166991983438e+000 6.906135870389e+000 0.000000000000e+000
          3.452788915829e+000 6.276851216781e+000 0.000000000000e+000
          3.340122000742e+000 5.656365440432e+000 0.000000000000e+000
          4.047936562877e+000 5.873561587395e+000 0.000000000000e+000
          1.802463974828e+000 1.292744708026e+001 0.000000000000e+000
          1.383967161336e+000 1.330299552906e+001 0.000000000000e+000
          1.329690820161e+000 1.266495373033e+001 0.000000000000e+000
          2.267922292389e+000 1.431116835808e+001 0.000000000000e+000
          2.854613987538e+000 1.466581611369e+001 0.000000000000e+000
          2.339869278674e+000 1.493776402241e+001 0.000000000000e+000
          4.690956878046e+000 3.115726773737e+000 0.000000000000e+000
          4.014773718330e+000 2.850429494150e+000 0.000000000000e+000
          4.643493383296e+000 2.293565471327e+000 0.000000000000e+000
          5.186083944243e+000 1.661927139510e+000 0.000000000000e+000
          5.452965511439e+000 2.679881546544e+000 0.000000000000e+000
          5.360460104304e+000 3.539902157655e+000 0.000000000000e+000
          6.197986304192e+000 3.115706366113e+000 0.000000000000e+000
          7.929356606585e-001 1.634705420870e+001 0.000000000000e+000
          1.222819867503e+000 1.599517159419e+001 0.000000000000e+000
          1.215723647926e+000 1.546209040954e+001 0.000000000000e+000
          1.770601276021e+000 1.521217632514e+001 0.000000000000e+000
          1.242830150061e+000 1.493919370237e+001 0.000000000000e+000
          1.166444124506e+000 4.610115997312e+000 0.000000000000e+000
          1.851620547934e+000 4.486892013458e+000 0.000000000000e+000
          1.494152702314e+000 5.145235789232e+000 0.000000000000e+000
          1.353088107040e+000 4.090803091641e+000 0.000000000000e+000
          3.802567455935e+000 5.084697985980e+000 0.000000000000e+000
          1.014840185783e+000 5.494768572296e+000 0.000000000000e+000
          8.831064584820e-001 5.109311190608e+000 0.000000000000e+000
          1.727903958959e+000 1.618384478933e+001 0.000000000000e+000
          1.343261525342e+000 1.651800241408e+001 0.000000000000e+000
          3.308120627291e+000 8.593311644828e+000 0.000000000000e+000
[...]
      <PointData Scalars="LIQUID_PRESSURE">
        <DataArray type="Float64" Name="LIQUID_PRESSURE" format="ascii">
          1.000000000000e+006 1.000000000000e+006 1.000000000000e+006 1.231439222258e+006 1.233825251678e+006 1.234865167365e+006 1.241347045182e+006 1.239027204842e+006 1.238720485785e+006 1.236744693005e+006 1.234466415453e+006 1.237823569241e+006 1.232408501631e+006 1.236385507034e+006 1.233912739355e+006 1.235499038290e+006 1.236181782490e+006 1.233413443988e+006 1.239258460420e+006 1.239049897695e+006 1.239369627589e+006 1.238498239605e+006 1.244623964121e+006 1.238471624529e+006 1.000000000050e+006 1.000000000009e+006 1.000000000005e+006 1.000000000088e+006 1.000000000002e+006 1.000000000027e+006 1.000000000009e+006 1.000000000050e+006 1.000000000005e+006 1.000000000088e+006 1.000000059050e+006 1.000000020859e+006 1.000000013057e+006 1.000000117241e+006 1.000000042615e+006 1.000000008916e+006 1.000000020858e+006 1.000000059048e+006 1.000000013056e+006 1.000000117239e+006 1.000000000000e+006 1.000000000000e+006 1.000000000000e+006 1.000000000001e+006 1.000000000000e+006 1.000000000000e+006 1.000000000000e+006 1.000000000000e+006 1.000000000000e+006 1.000000000001e+006 1.000000000000e+006 1.000000000000e+006 1.000000000000e+006 1.000000000000e+006 1.000000000000e+006 1.000000235665e+006 1.000000179838e+006 1.000000411989e+006 1.000000235658e+006 1.000000411982e+006 1.000001362215e+006 1.000002270659e+006 1.000000650216e+006 1.000001362195e+006 1.000000000388e+006 1.000000000663e+006 1.000000000231e+006 1.000000000388e+006 1.000000000663e+006 1.000000000000e+006 1.000000000000e+006 1.000000000000e+006 1.000000000000e+006 1.000000000000e+006 1.000000004063e+006 1.000000002464e+006 1.000000001581e+006 1.000000004063e+006 1.000000002464e+006 1.219972902177e+006 1.225954591941e+006 1.226230919093e+006 1.216927835726e+006 1.242555014784e+006 1.244041242391e+006 1.240796848179e+006 1.122472088153e+006 1.122900551768e+006 1.134363798262e+006 1.201789344701e+006 1.203349970065e+006 1.194368933488e+006 1.224132447549e+006 1.227336452699e+006 1.222487190459e+006 1.244246677463e+006 1.238555053292e+006 1.238416676703e+006 1.227677769171e+006 1.237023306401e+006 1.239773008772e+006 1.240412624462e+006 1.236591625684e+006 1.233286897370e+006 1.231457462680e+006 1.232224480180e+006 1.227192376043e+006 1.239833745730e+006 1.242065275709e+006 1.242368977387e+006 1.237675716948e+006 1.234951258556e+006 1.237359272770e+006 1.221669660292e+006 1.227422783418e+006 1.222095191248e+006 1.216980985579e+006 1.214285955346e+006 1.215226528746e+006 1.206286645052e+006 1.244735592092e+006 1.243100550770e+006 1.243103678540e+006 1.239974187363e+006 1.242838694118e+006 1.243244090911e+006 1.239571229990e+006 1.241458852592e+006 1.242235225488e+006 1.229035187674e+006 1.244047364717e+006 1.244680237334e+006 1.240211647971e+006 1.242301944711e+006 1.232408527237e+006 1.235829563148e+006 1.233472117540e+006 1.244568547590e+006 1.244719902429e+006 1.242583887737e+006 1.244903040909e+006 1.244253598973e+006 1.241896157968e+006 1.234611363386e+006 1.244704843525e+006 1.234689758538e+006 1.236324745871e+006 1.242554827863e+006 1.238400377803e+006 1.242662077148e+006 1.240351832497e+006 1.238217279667e+006 1.227074672954e+006 1.219972429143e+006 1.217195948838e+006 1.212528317403e+006 1.208508012036e+006 1.241648500503e+006 1.241865873331e+006 1.244301054258e+006 1.244704330863e+006 1.240231935155e+006 1.238410390237e+006 1.242766425992e+006 1.238395898844e+006 1.237529504469e+006 1.229110129445e+006 1.225957477317e+006 1.241676061444e+006 1.243717041268e+006 1.235890301801e+006 1.233318926027e+006 1.235373169907e+006 1.243037787157e+006 1.238344061458e+006 1.244003994122e+006 1.239521030330e+006 1.239758281211e+006 1.234172911903e+006 1.236796827550e+006 1.244724363672e+006 1.244666090454e+006 1.233271838863e+006 1.230937673704e+006 1.240016809505e+006 1.237716940898e+006 1.207178021692e+006 1.198316006905e+006 1.237895717979e+006 1.237631053736e+006 1.244541085903e+006 1.237657812857e+006 1.241455395379e+006 1.236450236861e+006 1.230700879407e+006 1.230837111610e+006 1.226179084617e+006 1.238949859633e+006 1.240355220616e+006 1.242984657366e+006 1.244340678977e+006 1.243009430011e+006 1.240999988448e+006 1.232882725403e+006 1.233477664341e+006 1.241882658565e+006 1.243810888305e+006 1.241050119723e+006 1.238449289078e+006 1.000004253167e+006 1.000004253122e+006 1.235867998343e+006 1.237782285453e+006 1.244593853650e+006 1.181287255441e+006 1.188855528641e+006 1.175218460200e+006 1.229584075844e+006 1.224253513598e+006 1.244082989138e+006 1.241483664759e+006 1.244379910196e+006 1.239639403113e+006 1.236642531941e+006 1.244369686772e+006 1.239121114037e+006 1.243586157427e+006 1.243287106899e+006 1.235722619581e+006 1.230979404330e+006 1.244692897293e+006 1.230031165128e+006 1.239611571141e+006 1.239857970387e+006 1.232150492459e+006 1.237821306789e+006 1.240932339631e+006 1.244510479602e+006 1.244334816608e+006 1.238611174271e+006 1.238558525398e+006 1.238470751318e+006 1.238502778771e+006 1.243706082818e+006 1.238379646203e+006 1.243588002709e+006 1.244145440199e+006 1.244734302329e+006 1.238468429217e+006 1.241996437305e+006 1.238373088487e+006 1.238394172447e+006 1.243852357389e+006 1.238352618863e+006 1.244094375011e+006 1.238392422187e+006 1.243056567626e+006 1.238374750283e+006 1.238336490500e+006 1.000019481845e+006 1.000008711543e+006 1.000007655449e+006 1.000027264613e+006 1.000007303634e+006 1.000018766667e+006 1.000008711357e+006 1.000019481444e+006 1.000007655275e+006 1.000027264115e+006 1.000007303516e+006 1.000018766391e+006 1.000099052388e+006 1.000062551346e+006 1.000045382077e+006 1.000132639997e+006 1.000043870515e+006 1.000096047204e+006 1.000062550333e+006 1.000099050782e+006 1.000045381244e+006 1.000132638107e+006 1.000043869941e+006 1.000096046095e+006 1.004622258061e+006 1.003624408206e+006 1.003060396307e+006 1.005394749314e+006 1.003005570244e+006 1.004546990790e+006 1.003624391604e+006 1.004622238593e+006 1.003060379067e+006 1.005394731899e+006 1.003005558695e+006 1.004546978632e+006 1.001950478250e+006 1.001458936881e+006 1.001191793664e+006 1.002346645770e+006 1.001166383131e+006 1.001912320156e+006 1.001458925967e+006 1.001950464294e+006 1.001191783214e+006 1.002346631697e+006 1.001166375896e+006 1.001912310575e+006 1.013109264142e+006 1.011163186048e+006 1.009546735992e+006 1.014920785772e+006 1.011163174808e+006 1.013109251383e+006 1.009546719186e+006 1.014920783962e+006 1.000695104148e+006 1.000490802856e+006 1.000385097837e+006 1.000867355753e+006 1.000375326575e+006 1.000678945282e+006 1.000490797615e+006 1.000695096867e+006 1.000385093109e+006 1.000867347914e+006 1.000375323297e+006 1.000678940231e+006 1.000201558554e+006 1.000262972832e+006 1.000195970272e+006 1.000201555695e+006 1.000262969568e+006 1.000195968293e+006 1.006746179458e+006 1.008275400555e+006 1.006647693249e+006 1.006746159784e+006 1.008275386471e+006 1.006647683495e+006 1.009469116867e+006 1.009469115654e+006 1.000150137278e+006 1.000233943509e+006 1.000116665150e+006 1.000294388381e+006 1.000150136414e+006 1.000294386911e+006 1.002536127488e+006 1.003358178067e+006 1.002160571101e+006 1.003890149923e+006 1.002536121748e+006 1.003890143747e+006 1.000071671304e+006 1.000054299369e+006 1.000071670835e+006 1.011975383361e+006 1.013040330884e+006 1.013040312748e+006 1.011975368460e+006 1.000441052444e+006 1.000543935350e+006 1.000543933024e+006 1.001588799023e+006 1.001333645805e+006 1.001588794378e+006 1.000952485191e+006 1.000786499921e+006 1.000952481772e+006 1.008255713140e+006 1.008255714014e+006 1.005025970234e+006 1.005755778132e+006 1.005755773156e+006 1.000031713321e+006 1.000023342970e+006 1.000031713086e+006 1.007613570262e+006 1.000011882195e+006 1.000006678273e+006 1.000011882100e+006 1.000002453269e+006 1.000003179543e+006 1.000002453335e+006 1.000003179607e+006 1.191239619997e+006 1.183069659903e+006 1.194045476920e+006 1.178932406814e+006 1.235128468796e+006 1.235965346169e+006 1.237960994165e+006 1.235103309637e+006 1.237962027853e+006 1.220207731492e+006 1.218421640681e+006 1.240786508493e+006 1.244215332682e+006 1.210796414606e+006 1.000000000000e+006 1.000000000000e+006 1.000000000000e+006 1.203891657614e+006 1.194057033538e+006 1.197399215747e+006 1.202305619351e+006 1.228122416614e+006 1.236411310881e+006 1.243731200340e+006 1.227914669914e+006 1.240954927365e+006 1.237298993501e+006 1.240142043302e+006 1.191303297191e+006 1.190759105263e+006 1.179574017689e+006 1.237440564717e+006 1.234228360814e+006 1.238626571195e+006 1.244065779867e+006 1.238363335126e+006 1.183041809673e+006 1.191746613488e+006 1.191774149596e+006 1.197064871910e+006 1.185209514128e+006 1.203312131976e+006 1.178933904519e+006 1.166482154016e+006 1.173012133564e+006 1.178926641170e+006 1.244694244754e+006 1.227630258317e+006 1.229144618222e+006 1.232392941847e+006 1.179243094162e+006 1.172836447493e+006 1.165793557057e+006 1.160442193059e+006 1.230907496792e+006 1.235054842312e+006 1.138514317201e+006 1.135934211144e+006 1.148013604384e+006 1.196873304438e+006 1.202694872431e+006 1.122774066272e+006 1.138790808567e+006 1.130339156615e+006 1.224810435367e+006 1.212256631634e+006 1.207177897594e+006 1.107666063372e+006 1.109214707080e+006 1.240504018270e+006 1.243017125183e+006 1.191157535735e+006 1.201976513768e+006 1.187077965300e+006 1.190482143089e+006 1.179031869419e+006 1.177914284286e+006 1.211336110358e+006 1.154549314807e+006 1.160540746075e+006 1.136107158932e+006 1.126880861019e+006 1.120762545735e+006 1.166809088476e+006 1.117144149154e+006 1.127810324996e+006 1.131038381947e+006 1.112085430052e+006 1.225498159993e+006 1.227798753957e+006 1.153942401292e+006 1.163792504554e+006 1.215514211894e+006 1.232522246667e+006 1.220226640046e+006 1.222089217947e+006 1.243911214275e+006 1.244451319831e+006 1.235899769038e+006 1.238214300108e+006 1.206858174253e+006 1.211467760953e+006 1.177575501749e+006 1.170074920100e+006 1.165154166879e+006 1.183694943341e+006 1.172399485470e+006 1.164921302677e+006 1.180934907411e+006 1.207884170669e+006 1.208178496487e+006 1.213500657912e+006 1.185308764698e+006 1.219811741847e+006 1.200368627172e+006 1.218831631766e+006 1.215043206988e+006 1.152510488121e+006 1.139872635658e+006 1.147933636097e+006 1.224796662170e+006 1.229943863722e+006 1.215662110178e+006 1.174180787071e+006 1.221750126055e+006 1.143285778754e+006 1.149356352700e+006 1.244245848602e+006 1.244082894606e+006 1.223407706056e+006 1.218708644996e+006 1.223742681491e+006 1.200288799264e+006 1.221439803228e+006 1.185441029877e+006 1.174754586271e+006 1.239054222934e+006 1.231659332752e+006 1.233829856110e+006 1.227295315215e+006 1.194716849777e+006 1.191034029195e+006 1.193978625487e+006 1.200730949146e+006 1.218651613846e+006 1.240348552651e+006 1.237249377999e+006 1.158326646652e+006 1.164855412426e+006 1.167625469186e+006 1.155035209875e+006 1.208335949484e+006 1.140815832414e+006 1.125803649517e+006 1.130443810516e+006 1.210024597928e+006 1.224812286667e+006 1.238124054172e+006 1.188862264107e+006 1.158175267486e+006 1.152977895283e+006 1.145246194729e+006 1.165179626809e+006 1.165066474377e+006 1.238382609448e+006 1.239889797850e+006 1.235298766431e+006 1.148504612083e+006 1.142438293536e+006 1.199124560968e+006 1.206109628497e+006 1.206744407038e+006 1.152202651071e+006 1.164330647146e+006 1.160353828844e+006 1.238424609239e+006 1.243828028613e+006 1.242927598963e+006 1.228095460814e+006 1.229638737218e+006 1.157191042175e+006 1.171960723447e+006 1.213846379113e+006 1.243699449924e+006 1.244751296829e+006 1.175640404960e+006 1.166167312679e+006 1.169586098244e+006 1.235499724655e+006 1.194422445406e+006 1.222468435669e+006 1.154330466897e+006 1.213244737475e+006 1.236884829331e+006 1.234799135247e+006 1.238798496740e+006 1.184285250343e+006 1.142007951453e+006 1.234985687726e+006 1.232320153159e+006 1.174413383888e+006 1.133243081506e+006 1.144598102615e+006 1.233672768605e+006 1.244209616329e+006 1.243165359919e+006 1.160244526813e+006 1.154662315633e+006 1.146920145407e+006 1.000000000000e+006 1.000000000000e+006 1.000000000000e+006 1.182522892858e+006 1.243814524524e+006 1.236722937711e+006 1.236040613890e+006 1.233980265309e+006 1.223208996944e+006 1.182861441945e+006 1.231284530919e+006 1.222297485449e+006 1.218457181960e+006 1.000001029844e+006 1.000001029869e+006 1.244000742779e+006 1.238492318748e+006 1.240744005140e+006 1.218543521025e+006 1.167503543545e+006 1.212145449438e+006 1.173320445989e+006 1.244765718994e+006 1.197007260134e+006 1.241515431078e+006 1.149551989572e+006 1.151781883232e+006 1.191689730714e+006 1.000000000000e+006 1.000000000000e+006 1.227303944721e+006 1.212953059671e+006 1.215618736378e+006 1.207437867301e+006 1.185711457831e+006 1.244582776780e+006 1.016645039080e+006 1.016225649524e+006 1.016645091795e+006 1.016225692972e+006 1.231457311384e+006 1.244937295027e+006 1.186572756357e+006 1.244114182576e+006 1.015172478504e+006 1.013512651416e+006 1.011265886070e+006 1.013512637310e+006 1.142891497986e+006 1.133506827656e+006 1.241789024499e+006 1.149993017727e+006 1.230042670215e+006 1.232898490932e+006 1.226467682224e+006 1.223915303550e+006 1.243853706917e+006 1.244387943321e+006 1.238385572576e+006 1.243186400000e+006 1.124021543452e+006 1.139433088019e+006 1.000000000000e+006 1.000000000000e+006 1.243360544432e+006 1.238776997450e+006 1.227891326857e+006 1.236692190469e+006 1.177184094202e+006 1.243511283364e+006 1.185904639118e+006 1.000000813439e+006 1.000000813416e+006 1.114461671297e+006 1.205816845386e+006 1.100023481896e+006 1.091565548745e+006 1.085459943598e+006 1.142730753627e+006 1.226518263754e+006 1.228784782291e+006 1.128500145587e+006 1.000000000000e+006 1.000000000000e+006 1.116465777741e+006 1.238609650887e+006 1.238442230762e+006 1.131717691446e+006 1.238301666704e+006 1.243271464708e+006 1.238371391265e+006 1.137245680092e+006 1.022658771687e+006 1.019327163811e+006 1.018753357963e+006 1.026053981331e+006 1.024734817419e+006 1.019327121858e+006 1.026053906333e+006 1.024734682450e+006 1.028980174212e+006 1.033018298676e+006 1.030524748237e+006 1.033018297462e+006 1.030524472032e+006 1.036408794740e+006 1.041064136914e+006 1.038186572161e+006 1.041063189201e+006 1.038186930682e+006 1.044936729470e+006 1.050224182986e+006 1.046957600933e+006 1.050217002895e+006 1.046956946527e+006 1.054569153510e+006 1.060525518376e+006 1.056839622096e+006 1.060485026176e+006 1.056829206408e+006 1.065293884422e+006 1.072086747807e+006 1.067871515250e+006 1.071901149815e+006 1.067789730443e+006 1.020763566396e+006 1.021326712185e+006 1.026377382939e+006 1.028150185538e+006 1.021326603055e+006 1.020763468503e+006 1.026377176511e+006 1.028149966345e+006 1.033385538170e+006 1.035459934267e+006 1.033385940312e+006 1.035460100277e+006 1.041486383410e+006 1.043860876888e+006 1.041487047817e+006 1.043859506622e+006 1.050689990031e+006 1.053384109061e+006 1.050690463542e+006 1.053371980132e+006 1.039813658264e+006 1.045425584483e+006 1.036867360193e+006 1.048725926027e+006 1.034684454314e+006 1.043800160881e+006 1.045426521478e+006 1.039813923937e+006 1.036867675462e+006 1.048726581667e+006 1.034684386617e+006 1.043799898568e+006 1.055100542530e+006 1.058867492353e+006 1.053319918719e+006 1.055103197516e+006 1.058869177216e+006 1.053318765950e+006 1.065839161237e+006 1.070325662617e+006 1.064044866176e+006 1.065846050214e+006 1.070332924108e+006 1.064038469685e+006 1.077567901709e+006 1.083885176287e+006 1.075035436205e+006 1.077577763949e+006 1.083769194601e+006 1.075713192641e+006 1.090153396652e+006 1.097708654259e+006 1.090157345861e+006 1.096915338871e+006 1.061002136527e+006 1.064091715480e+006 1.060998052568e+006 1.064019830979e+006 1.024107713400e+006 1.016803473826e+006 1.020171006810e+006 1.024107609295e+006 1.016803439969e+006 1.020170996061e+006 1.030560425954e+006 1.027090949999e+006 1.030560216662e+006 1.027090929452e+006 1.038248321986e+006 1.038247926018e+006 1.047036869063e+006 1.047036167034e+006 1.057003285450e+006 1.057002124390e+006 1.158083020935e+006 1.171078561433e+006 1.158247972310e+006 1.243905345010e+006 1.068357548825e+006 1.068355110242e+006 1.103422538981e+006 1.103421972494e+006 1.077124723728e+006 1.085240616106e+006 1.080451904731e+006 1.084672518296e+006 1.079876981384e+006 1.072481011582e+006 1.076271534483e+006 1.072442337123e+006 1.075915292175e+006 1.079333051250e+006 1.144812558960e+006 1.080464659479e+006 1.158247113206e+006 1.171079271363e+006 1.111309023674e+006 1.117142022573e+006 1.085154629676e+006 1.094889708666e+006 1.089619715200e+006 1.089309495236e+006 1.090305468581e+006 1.096851856196e+006 1.096701388686e+006 1.098791363317e+006 1.095435709883e+006 1.105437981570e+006 1.101877141633e+006 1.105113027184e+006 1.097188199920e+006 1.105348892507e+006 1.113743240527e+006 1.200824206515e+006 1.151841010293e+006 1.112805083720e+006 1.209113586055e+006 1.244116063477e+006 1.110742879623e+006 1.000000000000e+006 1.000000000000e+006 1.000000000000e+006 1.197165742464e+006 1.203071425889e+006 1.209521656346e+006 1.204927895218e+006 1.198290383057e+006 1.231332336702e+006 1.238544437182e+006 1.208741291930e+006 1.238457632665e+006 1.192627004866e+006 1.131014804046e+006 1.126887865374e+006 1.231137334803e+006 1.218608019355e+006 1.122491547918e+006 1.115342975394e+006 1.200860610297e+006 1.120162327844e+006 1.122967274170e+006 1.161466186364e+006 1.142384765507e+006 1.086731083779e+006 1.197511789766e+006 1.000000412997e+006 1.000000413008e+006 1.225010415162e+006 1.010329945323e+006 1.010329949647e+006 1.104562462789e+006 1.218670946923e+006 1.201619942486e+006 1.103202828611e+006 1.211606022286e+006 1.214126393183e+006 1.241308929952e+006 1.093389700134e+006 1.096069155161e+006 1.094404304564e+006 1.186562849984e+006 1.000000000000e+006 1.000000000000e+006 1.172952080963e+006 1.139086291510e+006 1.000000000000e+006 1.238295941943e+006 1.244398332567e+006 1.238483122219e+006 1.109508855549e+006 1.195414305905e+006 1.000000000000e+006 1.226081927013e+006 1.226245336367e+006 1.212522041459e+006 1.124529557589e+006 1.222681630220e+006 1.017544573862e+006 1.017544586441e+006 1.226112061240e+006 1.243146887661e+006 1.150794015108e+006 1.229462558882e+006 1.222420265676e+006 1.241672314350e+006 1.231107249763e+006 1.234883882064e+006 1.207278744148e+006 1.177861346688e+006 1.183075246308e+006 1.218181644972e+006 1.238532542939e+006 1.221046389481e+006 1.238641765654e+006 1.144808340951e+006 1.138447292988e+006 1.231365454356e+006 1.125188420279e+006 1.000000000000e+006 1.114614386831e+006 1.000000000000e+006 1.104779474096e+006 1.213749022487e+006 1.120705660156e+006 1.234273791662e+006 1.116372261708e+006 1.201643408330e+006 1.084661580896e+006 1.221275070357e+006 1.203882431590e+006 1.238294117981e+006 1.238424968489e+006 1.238700544091e+006 1.238392320607e+006 1.000000000000e+006 1.000000000000e+006 1.000000000000e+006 1.000000000000e+006 1.242792035143e+006 1.000000000000e+006 1.000000000000e+006 1.244632680861e+006 1.242473860926e+006 1.238646347397e+006 1.199833636592e+006 1.000000000000e+006 1.210053125582e+006 1.217734231271e+006 1.011936441690e+006 1.011936441178e+006 1.022929810014e+006 1.022929841580e+006 1.238553140097e+006 1.241697125368e+006 1.031329628423e+006 1.031329535691e+006 1.029355590361e+006 1.029355686197e+006 1.242429984248e+006 1.238652612388e+006 
        </DataArray>
        <DataArray type="Float64" Name="MOLAR_FRACTION" format="ascii">