<?xml version="1.0"?>
<VTKFile type="UnstructuredGrid" version="0.1" byte_order="LittleEndian">
  <UnstructuredGrid>
    <Piece NumberOfPoints="78" NumberOfCells="102">
      <Points>
        <DataArray type="Float64" NumberOfComponents="3" format="ascii">
          0.000000000000e+000 0.000000000000e+000 0.000000000000e+000
          2.400000000000e+000 0.000000000000e+000 0.000000000000e+000
          2.400000000000e+000 2.000000000000e-001 0.000000000000e+000
          0.000000000000e+000 2.000000000000e-001 0.000000000000e+000
          9.999999999980e-002 0.000000000000e+000 0.000000000000e+000
          1.999999999996e-001 0.000000000000e+000 0.000000000000e+000
          2.999999999995e-001 0.000000000000e+000 0.000000000000e+000
          3.999999999992e-001 0.000000000000e+000 0.000000000000e+000
          4.999999999989e-001 0.000000000000e+000 0.000000000000e+000
          5.999999999986e-001 0.000000000000e+000 0.000000000000e+000
          6.999999999983e-001 0.000000000000e+000 0.000000000000e+000
          7.999999999980e-001 0.000000000000e+000 0.000000000000e+000
          8.999999999978e-001 0.000000000000e+000 0.000000000000e+000
          9.999999999975e-001 0.000000000000e+000 0.000000000000e+000
          1.099999999997e+000 0.000000000000e+000 0.000000000000e+000
          1.199999999997e+000 0.000000000000e+000 0.000000000000e+000
          1.299999999997e+000 0.000000000000e+000 0.000000000000e+000
          1.399999999997e+000 0.000000000000e+000 0.000000000000e+000
          1.499999999998e+000 0.000000000000e+000 0.000000000000e+000
          1.599999999998e+000 0.000000000000e+000 0.000000000000e+000
          1.699999999998e+000 0.000000000000e+000 0.000000000000e+000
          1.799999999998e+000 0.000000000000e+000 0.000000000000e+000
          1.899999999999e+000 0.000000000000e+000 0.000000000000e+000
          1.999999999999e+000 0.000000000000e+000 0.000000000000e+000
          2.099999999999e+000 0.000000000000e+000 0.000000000000e+000
          2.199999999999e+000 0.000000000000e+000 0.000000000000e+000
          2.300000000000e+000 0.000000000000e+000 0.000000000000e+000
          2.400000000000e+000 9.999999999974e-002 0.000000000000e+000
          2.300000000000e+000 2.000000000000e-001 0.000000000000e+000
          2.200000000000e+000 2.000000000000e-001 0.000000000000e+000
          2.100000000000e+000 2.000000000000e-001 0.000000000000e+000
          2.000000000001e+000 2.000000000000e-001 0.000000000000e+000
          1.900000000001e+000 2.000000000000e-001 0.000000000000e+000
          1.800000000001e+000 2.000000000000e-001 0.000000000000e+000
          1.700000000002e+000 2.000000000000e-001 0.000000000000e+000
          1.600000000002e+000 2.000000000000e-001 0.000000000000e+000
          1.500000000002e+000 2.000000000000e-001 0.000000000000e+000
          1.400000000003e+000 2.000000000000e-001 0.000000000000e+000
          1.300000000003e+000 2.000000000000e-001 0.000000000000e+000
          1.200000000003e+000 2.000000000000e-001 0.000000000000e+000
          1.100000000003e+000 2.000000000000e-001 0.000000000000e+000
          1.000000000003e+000 2.000000000000e-001 0.000000000000e+000
          9.000000000023e-001 2.000000000000e-001 0.000000000000e+000
          8.000000000020e-001 2.000000000000e-001 0.000000000000e+000
          7.000000000018e-001 2.000000000000e-001 0.000000000000e+000
          6.000000000015e-001 2.000000000000e-001 0.000000000000e+000
          5.000000000013e-001 2.000000000000e-001 0.000000000000e+000
          4.000000000010e-001 2.000000000000e-001 0.000000000000e+000
          3.000000000008e-001 2.000000000000e-001 0.000000000000e+000
          2.000000000005e-001 2.000000000000e-001 0.000000000000e+000
          1.000000000003e-001 2.000000000000e-001 0.000000000000e+000
          0.000000000000e+000 1.000000000003e-001 0.000000000000e+000
          2.151388888889e+000 1.020833333334e-001 0.000000000000e+000
          1.429846938774e-001 1.006377551020e-001 0.000000000000e+000
          3.499999999993e-001 9.999999999967e-002 0.000000000000e+000
          1.950000000001e+000 1.000000000005e-001 0.000000000000e+000
          5.499999999988e-001 9.999999999941e-002 0.000000000000e+000
          1.750000000002e+000 1.000000000007e-001 0.000000000000e+000
          7.499999999982e-001 9.999999999914e-002 0.000000000000e+000
          1.550000000002e+000 1.000000000010e-001 0.000000000000e+000
          9.499999999976e-001 9.999999999887e-002 0.000000000000e+000
          1.350000000003e+000 1.000000000013e-001 0.000000000000e+000
          1.150000000000e+000 9.999999999919e-002 0.000000000000e+000
          2.260292658730e+000 9.853670634922e-002 0.000000000000e+000
          1.250000000000e+000 1.000000000001e-001 0.000000000000e+000
          2.050231481482e+000 1.003472222223e-001 0.000000000000e+000
          2.488307823129e-001 1.001062925169e-001 0.000000000000e+000
          4.499999999997e-001 9.999999999985e-002 0.000000000000e+000
          1.850000000000e+000 1.000000000002e-001 0.000000000000e+000
          6.499999999995e-001 9.999999999976e-002 0.000000000000e+000
          1.650000000001e+000 1.000000000003e-001 0.000000000000e+000
          8.499999999993e-001 9.999999999967e-002 0.000000000000e+000
          1.450000000001e+000 1.000000000004e-001 0.000000000000e+000
          1.050000000000e+000 9.999999999968e-002 0.000000000000e+000
          7.105553383353e-002 7.340627629639e-002 0.000000000000e+000
          2.332079639436e+000 1.297502941896e-001 0.000000000000e+000
          2.339336915611e+000 6.361441277535e-002 0.000000000000e+000
          6.280804554225e-002 1.348088062797e-001 0.000000000000e+000
        </DataArray>
      </Points>
      <Cells>
        <DataArray type="Int32" Name="connectivity" format="ascii">
          40 41 73 
          23 24 65 
          17 18 72 
          42 43 71 
          44 45 69 
          21 22 68 
          19 20 70 
          46 47 67 
          48 49 66 
          15 16 64 
          40 73 62 
          17 72 61 
          42 71 60 
          19 70 59 
          44 69 58 
          21 68 57 
          46 67 56 
          23 65 55 
          48 66 54 
          18 59 72 
          41 60 73 
          24 52 65 
          43 58 71 
          22 55 68 
          45 56 69 
          47 54 67 
          20 57 70 
          49 53 66 
          16 61 64 
          15 64 62 
          29 52 63 
          25 63 52 
          28 29 63 
          25 26 63 
          39 40 62 
          16 17 61 
          41 42 60 
          18 19 59 
          43 44 58 
          20 21 57 
          45 46 56 
          22 23 55 
          47 48 54 
          24 25 52 
          29 30 52 
          49 50 53 
          4 5 53 
          6 7 54 
          31 32 55 
          8 9 56 
          33 34 57 
          10 11 58 
          35 36 59 
          12 13 60 
          37 38 61 
          14 15 62 
          39 62 64 
          38 64 61 
          30 65 52 
          5 66 53 
          6 54 66 
          7 67 54 
          31 55 65 
          32 68 55 
          8 56 67 
          9 69 56 
          33 57 68 
          34 70 57 
          10 58 69 
          11 71 58 
          35 59 70 
          36 72 59 
          12 60 71 
          13 73 60 
          37 61 72 
          14 62 73 
          38 39 64 
          5 6 66 
          30 31 65 
          7 8 67 
          32 33 68 
          9 10 69 
          34 35 70 
          11 12 71 
          36 37 72 
          13 14 73 
          50 77 53 
          0 74 51 
          0 4 74 
          4 53 74 
          26 76 63 
          2 75 27 
          2 28 75 
          28 63 75 
          53 77 74 
          1 76 26 
          1 27 76 
          3 77 50 
          3 51 77 
          63 76 75 
          51 74 77 
          27 75 76 
        </DataArray>
        <DataArray type="Int32" Name="offsets" format="ascii">
          3 6 9 12 15 18 21 24 27 30 33 36 39 42 45 48 51 54 57 60 63 66 69 72 75 78 81 84 87 90 93 96 99 102 105 108 111 114 117 120 123 126 129 132 135 138 141 144 147 150 153 156 159 162 165 168 171 174 177 180 183 186 189 192 195 198 201 204 207 210 213 216 219 222 225 228 231 234 237 240 243 246 249 252 255 258 261 264 267 270 273 276 279 282 285 288 291 294 297 300 303 306 
        </DataArray>
        <DataArray type="UInt8" Name="types" format="ascii">
          5 5 5 5 5 5 5 5 5 5 5 5 5 5 5 5 5 5 5 5 5 5 5 5 5 5 5 5 5 5 5 5 5 5 5 5 5 5 5 5 5 5 5 5 5 5 5 5 5 5 5 5 5 5 5 5 5 5 5 5 5 5 5 5 5 5 5 5 5 5 5 5 5 5 5 5 5 5 5 5 5 5 5 5 5 5 5 5 5 5 5 5 5 5 5 5 5 5 5 5 5 5 
        </DataArray>
      </Cells>
      <PointData Scalars="CAPILLARY_PRESSURE">
        <DataArray type="Float64" Name="CAPILLARY_PRESSURE" format="ascii">
          1.527801406200e+005 1.528584801293e+005 1.528585263637e+005 1.527801406200e+005 1.528059774627e+005 1.528290582148e+005 1.528476453763e+005 1.528615065841e+005 1.528717187076e+005 1.528795697209e+005 1.528854538562e+005 1.528885850081e+005 1.528879844834e+005 1.528841700970e+005 1.528798305478e+005 1.528778364655e+005 1.528775278429e+005 1.528741740806e+005 1.528655868249e+005 1.528576783589e+005 1.528530938188e+005 1.528438545822e+005 1.528360883295e+005 1.528319344339e+005 1.528271130879e+005 1.528277475566e+005 1.528354369000e+005 1.528615753951e+005 1.528353074718e+005 1.528278632358e+005 1.528270638501e+005 1.528318550870e+005 1.528361235391e+005 1.528438696089e+005 1.528530896181e+005 1.528576761406e+005 1.528655866391e+005 1.528741741540e+005 1.528775278772e+005 1.528778364745e+005 1.528798305493e+005 1.528841700971e+005 1.528879844831e+005 1.528885850075e+005 1.528854538541e+005 1.528795697126e+005 1.528717186753e+005 1.528615064586e+005 1.528476448875e+005 1.528290563746e+005 1.528059747551e+005 1.527801406200e+005 1.528275974807e+005 1.528163787993e+005 1.528551216841e+005 1.528344688030e+005 1.528758845494e+005 1.528492242390e+005 1.528874397959e+005 1.528610555981e+005 1.528863535574e+005 1.528765433880e+005 1.528784609512e+005 1.528306405321e+005 1.528777151048e+005 1.528285118594e+005 1.528387634281e+005 1.528669785210e+005 1.528389280543e+005 1.528827844758e+005 1.528554309267e+005 1.528887720111e+005 1.528703245421e+005 1.528818475784e+005 1.527986213958e+005 1.528405281997e+005 1.528418679543e+005 1.527965233586e+005 
        </DataArray>
        <DataArray type="Float64" Name="GAS_PRESSURE" format="ascii">
          1.013250000000e+005 1.011148151283e+005 1.011149629633e+005 1.013250000000e+005 1.013020959333e+005 1.012806704880e+005 1.012619413136e+005 1.012467971900e+005 1.012350285834e+005 1.012248126140e+005 1.012132340995e+005 1.011982530351e+005 1.011811925547e+005 1.011673947792e+005 1.011628331782e+005 1.011677562083e+005 1.011738032147e+005 1.011718503008e+005 1.011651099034e+005 1.011636341038e+005 1.011587313668e+005 1.011406634572e+005 1.011287418302e+005 1.011129694694e+005 1.010993594463e+005 1.010909180821e+005 1.010951362754e+005 1.011201080527e+005 1.010950731612e+005 1.010909800232e+005 1.010995212452e+005 1.011127840973e+005 1.011287313002e+005 1.011407036782e+005 1.011587357230e+005 1.011636306338e+005 1.011651088125e+005 1.011718501938e+005 1.011738032362e+005 1.011677562225e+005 1.011628331826e+005 1.011673947801e+005 1.011811925548e+005 1.011982530351e+005 1.012132340994e+005 1.012248126144e+005 1.012350285883e+005 1.012467972214e+005 1.012619414831e+005 1.012806712042e+005 1.013020967134e+005 1.013250000000e+005 1.010959763417e+005 1.012926264640e+005 1.012538974435e+005 1.011223816194e+005 1.012298995545e+005 1.011503565759e+005 1.012061886210e+005 1.011636188752e+005 1.011734572449e+005 1.011740105260e+005 1.011644602373e+005 1.010907558727e+005 1.011713637669e+005 1.011041211926e+005 1.012711066777e+005 1.012405658849e+005 1.011334792786e+005 1.012193728787e+005 1.011629400289e+005 1.011897258816e+005 1.011683124564e+005 1.011637366747e+005 1.013086538319e+005 1.010972618483e+005 1.010984990937e+005 1.013105251585e+005 
        </DataArray>
        <DataArray type="Float64" Name="TEMPERATURE" format="ascii">
          3.431500000000e+002 3.519508917696e+002 3.519504877049e+002 3.431500000000e+002 3.431499972756e+002 3.431499945880e+002 3.431499924041e+002 3.431499908141e+002 3.431499896558e+002 3.431499888387e+002 3.431499885199e+002 3.431499890070e+002 3.431499903773e+002 3.431499921212e+002 3.431499932876e+002 3.431499933115e+002 3.431499929082e+002 3.431499937247e+002 3.431499952937e+002 3.431499996645e+002 3.431499898628e+002 3.431499844205e+002 3.431505595130e+002 3.431458988167e+002 3.431428423051e+002 3.434896354709e+002 3.456167825829e+002 3.522338096665e+002 3.456187797216e+002 3.434892312392e+002 3.431425084616e+002 3.431459067275e+002 3.431505685846e+002 3.431499847216e+002 3.431499896444e+002 3.431499996728e+002 3.431499952979e+002 3.431499937244e+002 3.431499929088e+002 3.431499933119e+002 3.431499932878e+002 3.431499921215e+002 3.431499903776e+002 3.431499890070e+002 3.431499885198e+002 3.431499888386e+002 3.431499896560e+002 3.431499908144e+002 3.431499924044e+002 3.431499945888e+002 3.431499972776e+002 3.431500000000e+002 3.432184920636e+002 3.431499960788e+002 3.431499915432e+002 3.431499299036e+002 3.431499892011e+002 3.431499621335e+002 3.431499886469e+002 3.431499966075e+002 3.431499912587e+002 3.431499930987e+002 3.431499934337e+002 3.444264861569e+002 3.431499930614e+002 3.431384758603e+002 3.431499934417e+002 3.431499901915e+002 3.431502139396e+002 3.431499885978e+002 3.431500014469e+002 3.431499895981e+002 3.431499945468e+002 3.431499928340e+002 3.431499980902e+002 3.472090341866e+002 3.476139886326e+002 3.431499983175e+002 
        </DataArray>
      </PointData>
      <CellData>
        <DataArray type="Float64" Name="Saturation" format="ascii">
          1.281789426712e-001 1.278272046150e-001 1.280995049058e-001 1.282222340905e-001 1.281832953110e-001 1.278968117603e-001 1.280020065571e-001 1.280775517392e-001 1.278892393527e-001 1.281505822947e-001 1.281662625697e-001 1.281238441013e-001 1.282172786710e-001 1.280196982143e-001 1.282007739503e-001 1.279260091891e-001 1.281094932578e-001 1.278435579953e-001 1.279471744895e-001 1.280703609516e-001 1.281934298125e-001 1.278175622844e-001 1.282210245007e-001 1.278759483050e-001 1.281620416726e-001 1.280406770864e-001 1.279832197925e-001 1.278197312766e-001 1.281477101425e-001 1.281526548726e-001 1.278239628006e-001 1.278237056098e-001 1.278411038668e-001 1.278411344233e-001 1.281573535687e-001 1.281398447646e-001 1.282070589003e-001 1.280422639813e-001 1.282136557603e-001 1.279574930681e-001 1.281374626275e-001 1.278604014208e-001 1.279977171771e-001 1.278158629781e-001 1.278160107002e-001 1.277468234133e-001 1.277468335269e-001 1.279977185425e-001 1.278603032982e-001 1.281374627177e-001 1.279575171293e-001 1.282136557663e-001 1.280422586397e-001 1.282070589005e-001 1.281398450041e-001 1.281573535455e-001 1.281526548925e-001 1.281477102188e-001 1.278174528116e-001 1.278197353681e-001 1.279471755759e-001 1.280406773654e-001 1.278433815937e-001 1.278760265748e-001 1.281094933295e-001 1.281620416911e-001 1.279260425881e-001 1.279832104575e-001 1.282007739551e-001 1.282210245020e-001 1.280196932852e-001 1.280703605388e-001 1.282172786714e-001 1.281934298123e-001 1.281238442645e-001 1.281662625662e-001 1.281505823908e-001 1.278892445301e-001 1.278269187365e-001 1.280775520900e-001 1.278969234277e-001 1.281832953342e-001 1.280019922932e-001 1.282222340922e-001 1.280995046563e-001 1.281789426676e-001 1.276744690229e-001 1.275410432027e-001 1.275985285347e-001 1.276791418391e-001 1.278725250829e-001 1.279896206957e-001 1.279312424732e-001 1.278692591794e-001 1.276581124911e-001 1.279344051772e-001 1.279924953508e-001 1.275938548873e-001 1.275363749868e-001 1.278838426983e-001 1.275774954459e-001 1.279525999914e-001 
        </DataArray>
        <DataArray type="Int32" Name="MatGroup" format="ascii">
          0 0 0 0 0 0 0 0 0 0 0 0 0 0 0 0 0 0 0 0 0 0 0 0 0 0 0 0 0 0 0 0 0 0 0 0 0 0 0 0 0 0 0 0 0 0 0 0 0 0 0 0 0 0 0 0 0 0 0 0 0 0 0 0 0 0 0 0 0 0 0 0 0 0 0 0 0 0 0 0 0 0 0 0 0 0 0 0 0 0 0 0 0 0 0 0 0 0 0 0 0 0 
        </DataArray>
      </CellData>
    </Piece>
  </UnstructuredGrid>
</VTKFile>
