<?xml version="1.0"?>
<VTKFile type="UnstructuredGrid" version="0.1" byte_order="LittleEndian">
  <UnstructuredGrid>
    <Piece NumberOfPoints="78" NumberOfCells="102">
      <Points>
        <DataArray type="Float64" NumberOfComponents="3" format="ascii">
          0.000000000000e+000 0.000000000000e+000 0.000000000000e+000
          2.400000000000e+000 0.000000000000e+000 0.000000000000e+000
          2.400000000000e+000 2.000000000000e-001 0.000000000000e+000
          0.000000000000e+000 2.000000000000e-001 0.000000000000e+000
          9.999999999980e-002 0.000000000000e+000 0.000000000000e+000
          1.999999999996e-001 0.000000000000e+000 0.000000000000e+000
          2.999999999995e-001 0.000000000000e+000 0.000000000000e+000
          3.999999999992e-001 0.000000000000e+000 0.000000000000e+000
          4.999999999989e-001 0.000000000000e+000 0.000000000000e+000
          5.999999999986e-001 0.000000000000e+000 0.000000000000e+000
          6.999999999983e-001 0.000000000000e+000 0.000000000000e+000
          7.999999999980e-001 0.000000000000e+000 0.000000000000e+000
          8.999999999978e-001 0.000000000000e+000 0.000000000000e+000
          9.999999999975e-001 0.000000000000e+000 0.000000000000e+000
          1.099999999997e+000 0.000000000000e+000 0.000000000000e+000
          1.199999999997e+000 0.000000000000e+000 0.000000000000e+000
          1.299999999997e+000 0.000000000000e+000 0.000000000000e+000
          1.399999999997e+000 0.000000000000e+000 0.000000000000e+000
          1.499999999998e+000 0.000000000000e+000 0.000000000000e+000
          1.599999999998e+000 0.000000000000e+000 0.000000000000e+000
          1.699999999998e+000 0.000000000000e+000 0.000000000000e+000
          1.799999999998e+000 0.000000000000e+000 0.000000000000e+000
          1.899999999999e+000 0.000000000000e+000 0.000000000000e+000
          1.999999999999e+000 0.000000000000e+000 0.000000000000e+000
          2.099999999999e+000 0.000000000000e+000 0.000000000000e+000
          2.199999999999e+000 0.000000000000e+000 0.000000000000e+000
          2.300000000000e+000 0.000000000000e+000 0.000000000000e+000
          2.400000000000e+000 9.999999999974e-002 0.000000000000e+000
          2.300000000000e+000 2.000000000000e-001 0.000000000000e+000
          2.200000000000e+000 2.000000000000e-001 0.000000000000e+000
          2.100000000000e+000 2.000000000000e-001 0.000000000000e+000
          2.000000000001e+000 2.000000000000e-001 0.000000000000e+000
          1.900000000001e+000 2.000000000000e-001 0.000000000000e+000
          1.800000000001e+000 2.000000000000e-001 0.000000000000e+000
          1.700000000002e+000 2.000000000000e-001 0.000000000000e+000
          1.600000000002e+000 2.000000000000e-001 0.000000000000e+000
          1.500000000002e+000 2.000000000000e-001 0.000000000000e+000
          1.400000000003e+000 2.000000000000e-001 0.000000000000e+000
          1.300000000003e+000 2.000000000000e-001 0.000000000000e+000
          1.200000000003e+000 2.000000000000e-001 0.000000000000e+000
          1.100000000003e+000 2.000000000000e-001 0.000000000000e+000
          1.000000000003e+000 2.000000000000e-001 0.000000000000e+000
          9.000000000023e-001 2.000000000000e-001 0.000000000000e+000
          8.000000000020e-001 2.000000000000e-001 0.000000000000e+000
          7.000000000018e-001 2.000000000000e-001 0.000000000000e+000
          6.000000000015e-001 2.000000000000e-001 0.000000000000e+000
          5.000000000013e-001 2.000000000000e-001 0.000000000000e+000
          4.000000000010e-001 2.000000000000e-001 0.000000000000e+000
          3.000000000008e-001 2.000000000000e-001 0.000000000000e+000
          2.000000000005e-001 2.000000000000e-001 0.000000000000e+000
          1.000000000003e-001 2.000000000000e-001 0.000000000000e+000
          0.000000000000e+000 1.000000000003e-001 0.000000000000e+000
          2.151388888889e+000 1.020833333334e-001 0.000000000000e+000
          1.429846938774e-001 1.006377551020e-001 0.000000000000e+000
          3.499999999993e-001 9.999999999967e-002 0.000000000000e+000
          1.950000000001e+000 1.000000000005e-001 0.000000000000e+000
          5.499999999988e-001 9.999999999941e-002 0.000000000000e+000
          1.750000000002e+000 1.000000000007e-001 0.000000000000e+000
          7.499999999982e-001 9.999999999914e-002 0.000000000000e+000
          1.550000000002e+000 1.000000000010e-001 0.000000000000e+000
          9.499999999976e-001 9.999999999887e-002 0.000000000000e+000
          1.350000000003e+000 1.000000000013e-001 0.000000000000e+000
          1.150000000000e+000 9.999999999919e-002 0.000000000000e+000
          2.260292658730e+000 9.853670634922e-002 0.000000000000e+000
          1.250000000000e+000 1.000000000001e-001 0.000000000000e+000
          2.050231481482e+000 1.003472222223e-001 0.000000000000e+000
          2.488307823129e-001 1.001062925169e-001 0.000000000000e+000
          4.499999999997e-001 9.999999999985e-002 0.000000000000e+000
          1.850000000000e+000 1.000000000002e-001 0.000000000000e+000
          6.499999999995e-001 9.999999999976e-002 0.000000000000e+000
          1.650000000001e+000 1.000000000003e-001 0.000000000000e+000
          8.499999999993e-001 9.999999999967e-002 0.000000000000e+000
          1.450000000001e+000 1.000000000004e-001 0.000000000000e+000
          1.050000000000e+000 9.999999999968e-002 0.000000000000e+000
          7.105553383353e-002 7.340627629639e-002 0.000000000000e+000
          2.332079639436e+000 1.297502941896e-001 0.000000000000e+000
          2.339336915611e+000 6.361441277535e-002 0.000000000000e+000
          6.280804554225e-002 1.348088062797e-001 0.000000000000e+000
        </DataArray>
      </Points>
      <Cells>
        <DataArray type="Int32" Name="connectivity" format="ascii">
          40 41 73 
          23 24 65 
          17 18 72 
          42 43 71 
          44 45 69 
          21 22 68 
          19 20 70 
          46 47 67 
          48 49 66 
          15 16 64 
          40 73 62 
          17 72 61 
          42 71 60 
          19 70 59 
          44 69 58 
          21 68 57 
          46 67 56 
          23 65 55 
          48 66 54 
          18 59 72 
          41 60 73 
          24 52 65 
          43 58 71 
          22 55 68 
          45 56 69 
          47 54 67 
          20 57 70 
          49 53 66 
          16 61 64 
          15 64 62 
          29 52 63 
          25 63 52 
          28 29 63 
          25 26 63 
          39 40 62 
          16 17 61 
          41 42 60 
          18 19 59 
          43 44 58 
          20 21 57 
          45 46 56 
          22 23 55 
          47 48 54 
          24 25 52 
          29 30 52 
          49 50 53 
          4 5 53 
          6 7 54 
          31 32 55 
          8 9 56 
          33 34 57 
          10 11 58 
          35 36 59 
          12 13 60 
          37 38 61 
          14 15 62 
          39 62 64 
          38 64 61 
          30 65 52 
          5 66 53 
          6 54 66 
          7 67 54 
          31 55 65 
          32 68 55 
          8 56 67 
          9 69 56 
          33 57 68 
          34 70 57 
          10 58 69 
          11 71 58 
          35 59 70 
          36 72 59 
          12 60 71 
          13 73 60 
          37 61 72 
          14 62 73 
          38 39 64 
          5 6 66 
          30 31 65 
          7 8 67 
          32 33 68 
          9 10 69 
          34 35 70 
          11 12 71 
          36 37 72 
          13 14 73 
          50 77 53 
          0 74 51 
          0 4 74 
          4 53 74 
          26 76 63 
          2 75 27 
          2 28 75 
          28 63 75 
          53 77 74 
          1 76 26 
          1 27 76 
          3 77 50 
          3 51 77 
          63 76 75 
          51 74 77 
          27 75 76 
        </DataArray>
        <DataArray type="Int32" Name="offsets" format="ascii">
          3 6 9 12 15 18 21 24 27 30 33 36 39 42 45 48 51 54 57 60 63 66 69 72 75 78 81 84 87 90 93 96 99 102 105 108 111 114 117 120 123 126 129 132 135 138 141 144 147 150 153 156 159 162 165 168 171 174 177 180 183 186 189 192 195 198 201 204 207 210 213 216 219 222 225 228 231 234 237 240 243 246 249 252 255 258 261 264 267 270 273 276 279 282 285 288 291 294 297 300 303 306 
        </DataArray>
        <DataArray type="UInt8" Name="types" format="ascii">
          5 5 5 5 5 5 5 5 5 5 5 5 5 5 5 5 5 5 5 5 5 5 5 5 5 5 5 5 5 5 5 5 5 5 5 5 5 5 5 5 5 5 5 5 5 5 5 5 5 5 5 5 5 5 5 5 5 5 5 5 5 5 5 5 5 5 5 5 5 5 5 5 5 5 5 5 5 5 5 5 5 5 5 5 5 5 5 5 5 5 5 5 5 5 5 5 5 5 5 5 5 5 
        </DataArray>
      </Cells>
      <PointData Scalars="CAPILLARY_PRESSURE">
        <DataArray type="Float64" Name="CAPILLARY_PRESSURE" format="ascii">
          1.527801406200e+005 1.525593308592e+005 1.525594088723e+005 1.527801406200e+005 1.528592839112e+005 1.529351730444e+005 1.530069162945e+005 1.530747477877e+005 1.531398693832e+005 1.532033330891e+005 1.532643648376e+005 1.533190873149e+005 1.533611229771e+005 1.533846400647e+005 1.533879259534e+005 1.533735870227e+005 1.533436443676e+005 1.532950034740e+005 1.532244412114e+005 1.531381848250e+005 1.530433784117e+005 1.529363382581e+005 1.528273967699e+005 1.527268441944e+005 1.526378172247e+005 1.525738902676e+005 1.525419153311e+005 1.525654733737e+005 1.525418199507e+005 1.525739911094e+005 1.526377402369e+005 1.527267680074e+005 1.528274395683e+005 1.529363528583e+005 1.530433725407e+005 1.531381821715e+005 1.532244410644e+005 1.532950036036e+005 1.533436444223e+005 1.533735870363e+005 1.533879259555e+005 1.533846400648e+005 1.533611229770e+005 1.533190873148e+005 1.532643648372e+005 1.532033330869e+005 1.531398693717e+005 1.530747477334e+005 1.530069160530e+005 1.529351720335e+005 1.528592841156e+005 1.527801406200e+005 1.526021251211e+005 1.528923832426e+005 1.530412613380e+005 1.527764687460e+005 1.531717935667e+005 1.529913772952e+005 1.532928799934e+005 1.531825725131e+005 1.533754285552e+005 1.533219990406e+005 1.533827396784e+005 1.525494727760e+005 1.533606363457e+005 1.526791352412e+005 1.529707513930e+005 1.531075600406e+005 1.528807935640e+005 1.532343170699e+005 1.530919740016e+005 1.533421162795e+005 1.532623336965e+005 1.533887136822e+005 1.528365877249e+005 1.525419843356e+005 1.525424212716e+005 1.528301064592e+005 
        </DataArray>
        <DataArray type="Float64" Name="GAS_PRESSURE" format="ascii">
          1.013250000000e+005 1.003889360450e+005 1.003891521947e+005 1.013250000000e+005 1.014386545653e+005 1.015430542149e+005 1.016339518611e+005 1.017121378856e+005 1.017821709073e+005 1.018476236365e+005 1.019064257244e+005 1.019498584134e+005 1.019670110470e+005 1.019520087628e+005 1.019072372159e+005 1.018376926894e+005 1.017418580896e+005 1.016138027665e+005 1.014594767552e+005 1.012979528247e+005 1.011311020962e+005 1.009533290853e+005 1.007901619015e+005 1.006402270423e+005 1.005146887460e+005 1.004236044032e+005 1.003781420279e+005 1.003977644651e+005 1.003781106030e+005 1.004236650335e+005 1.005148092215e+005 1.006400214727e+005 1.007901626342e+005 1.009533750787e+005 1.011311051888e+005 1.012979480841e+005 1.014594753678e+005 1.016138026653e+005 1.017418581382e+005 1.018376927151e+005 1.019072372235e+005 1.019520087642e+005 1.019670110468e+005 1.019498584117e+005 1.019064257178e+005 1.018476236107e+005 1.017821708077e+005 1.017121375054e+005 1.016339504171e+005 1.015430487899e+005 1.014386481037e+005 1.013250000000e+005 1.004647596758e+005 1.014850398279e+005 1.016743961000e+005 1.007142856435e+005 1.018154293365e+005 1.010424000841e+005 1.019307789160e+005 1.013787423458e+005 1.019635523218e+005 1.016819621759e+005 1.018754366711e+005 1.003891436743e+005 1.017934864943e+005 1.005718616014e+005 1.015892452319e+005 1.017478639274e+005 1.008688135129e+005 1.018782714452e+005 1.012161381576e+005 1.019622810492e+005 1.015387650382e+005 1.019329711095e+005 1.014062399212e+005 1.003737069617e+005 1.003737296155e+005 1.013969840275e+005 
        </DataArray>
        <DataArray type="Float64" Name="TEMPERATURE" format="ascii">
          3.431500000000e+002 3.563782602375e+002 3.563814114809e+002 3.431500000000e+002 3.431499795622e+002 3.431499551257e+002 3.431499302857e+002 3.431499065145e+002 3.431498840656e+002 3.431498631802e+002 3.431498446611e+002 3.431498301717e+002 3.431498218072e+002 3.431498209437e+002 3.431498272995e+002 3.431498394858e+002 3.431498567172e+002 3.431498789127e+002 3.431499090507e+002 3.431499530333e+002 3.431498208064e+002 3.431492192190e+002 3.431579918902e+002 3.432523873490e+002 3.437302398931e+002 3.453107428066e+002 3.491285171590e+002 3.565813289212e+002 3.491321051784e+002 3.453097217594e+002 3.437296654017e+002 3.432522427573e+002 3.431579562936e+002 3.431492148660e+002 3.431498201705e+002 3.431499530724e+002 3.431499090592e+002 3.431498789147e+002 3.431498567168e+002 3.431498394858e+002 3.431498272995e+002 3.431498209436e+002 3.431498218072e+002 3.431498301719e+002 3.431498446611e+002 3.431498631800e+002 3.431498840652e+002 3.431499065143e+002 3.431499302861e+002 3.431499551301e+002 3.431499795787e+002 3.431500000000e+002 3.443317421468e+002 3.431499692444e+002 3.431499182422e+002 3.431834988028e+002 3.431498733964e+002 3.431495043807e+002 3.431498367808e+002 3.431499314578e+002 3.431498204135e+002 3.431498672070e+002 3.431498327433e+002 3.472711319123e+002 3.431498474743e+002 3.434106575693e+002 3.431499429091e+002 3.431498951156e+002 3.431504445170e+002 3.431498535403e+002 3.431499415839e+002 3.431498251054e+002 3.431498922399e+002 3.431498232995e+002 3.431499861028e+002 3.511341273958e+002 3.516212297084e+002 3.431499878838e+002 
        </DataArray>
      </PointData>
      <CellData>
        <DataArray type="Float64" Name="Saturation" format="ascii">
          1.315280737663e-001 1.268391405368e-001 1.306924628334e-001 1.312223577897e-001 1.305165775448e-001 1.281759795030e-001 1.295701449133e-001 1.296777265149e-001 1.287713929207e-001 1.313445896702e-001 1.315238945245e-001 1.309074700079e-001 1.313463494964e-001 1.298778883134e-001 1.307140346698e-001 1.285399835476e-001 1.298922447619e-001 1.271481538264e-001 1.290065228207e-001 1.304445077138e-001 1.315005890792e-001 1.265609404179e-001 1.310721129404e-001 1.278207267500e-001 1.303123304747e-001 1.294596156295e-001 1.292452648592e-001 1.285173639853e-001 1.312310597617e-001 1.314306013452e-001 1.261288921102e-001 1.261286667878e-001 1.259941241050e-001 1.259941119320e-001 1.314906269068e-001 1.310865656719e-001 1.314399027543e-001 1.301704996713e-001 1.309008530715e-001 1.289005074046e-001 1.301038162553e-001 1.274782775148e-001 1.292368563604e-001 1.263260030106e-001 1.263260563411e-001 1.282699552129e-001 1.282699570030e-001 1.292368570152e-001 1.274782031409e-001 1.301038162854e-001 1.289005267627e-001 1.309008530723e-001 1.301704934867e-001 1.314399027544e-001 1.310865660778e-001 1.314906268722e-001 1.314306013750e-001 1.312310598822e-001 1.265607686126e-001 1.285173662282e-001 1.290065233556e-001 1.294596157497e-001 1.271479841022e-001 1.278208219049e-001 1.298922447872e-001 1.303123304795e-001 1.285400159398e-001 1.292452518609e-001 1.307140346705e-001 1.310721129406e-001 1.298778824496e-001 1.304445073895e-001 1.313463494967e-001 1.315005890791e-001 1.309074702935e-001 1.315238945198e-001 1.313445898205e-001 1.287713956975e-001 1.268387989969e-001 1.296777266604e-001 1.281761070014e-001 1.305165775504e-001 1.295701260566e-001 1.312223577901e-001 1.306924627950e-001 1.315280737614e-001 1.280365944937e-001 1.276255031814e-001 1.278015131120e-001 1.280509965161e-001 1.259237654130e-001 1.259976634419e-001 1.259447882916e-001 1.259225752735e-001 1.279861592468e-001 1.259458039767e-001 1.259984657949e-001 1.277871031550e-001 1.276110871714e-001 1.259239196916e-001 1.277366401207e-001 1.259596892644e-001 
        </DataArray>
        <DataArray type="Int32" Name="MatGroup" format="ascii">
          0 0 0 0 0 0 0 0 0 0 0 0 0 0 0 0 0 0 0 0 0 0 0 0 0 0 0 0 0 0 0 0 0 0 0 0 0 0 0 0 0 0 0 0 0 0 0 0 0 0 0 0 0 0 0 0 0 0 0 0 0 0 0 0 0 0 0 0 0 0 0 0 0 0 0 0 0 0 0 0 0 0 0 0 0 0 0 0 0 0 0 0 0 0 0 0 0 0 0 0 0 0 
        </DataArray>
      </CellData>
    </Piece>
  </UnstructuredGrid>
</VTKFile>
