<?xml version="1.0"?>
<VTKFile type="UnstructuredGrid" version="0.1" byte_order="LittleEndian">
  <UnstructuredGrid>
    <Piece NumberOfPoints="78" NumberOfCells="102">
      <Points>
        <DataArray type="Float64" NumberOfComponents="3" format="ascii">
          0.000000000000e+000 0.000000000000e+000 0.000000000000e+000
          2.400000000000e+000 0.000000000000e+000 0.000000000000e+000
          2.400000000000e+000 2.000000000000e-001 0.000000000000e+000
          0.000000000000e+000 2.000000000000e-001 0.000000000000e+000
          9.999999999980e-002 0.000000000000e+000 0.000000000000e+000
          1.999999999996e-001 0.000000000000e+000 0.000000000000e+000
          2.999999999995e-001 0.000000000000e+000 0.000000000000e+000
          3.999999999992e-001 0.000000000000e+000 0.000000000000e+000
          4.999999999989e-001 0.000000000000e+000 0.000000000000e+000
          5.999999999986e-001 0.000000000000e+000 0.000000000000e+000
          6.999999999983e-001 0.000000000000e+000 0.000000000000e+000
          7.999999999980e-001 0.000000000000e+000 0.000000000000e+000
          8.999999999978e-001 0.000000000000e+000 0.000000000000e+000
          9.999999999975e-001 0.000000000000e+000 0.000000000000e+000
          1.099999999997e+000 0.000000000000e+000 0.000000000000e+000
          1.199999999997e+000 0.000000000000e+000 0.000000000000e+000
          1.299999999997e+000 0.000000000000e+000 0.000000000000e+000
          1.399999999997e+000 0.000000000000e+000 0.000000000000e+000
          1.499999999998e+000 0.000000000000e+000 0.000000000000e+000
          1.599999999998e+000 0.000000000000e+000 0.000000000000e+000
          1.699999999998e+000 0.000000000000e+000 0.000000000000e+000
          1.799999999998e+000 0.000000000000e+000 0.000000000000e+000
          1.899999999999e+000 0.000000000000e+000 0.000000000000e+000
          1.999999999999e+000 0.000000000000e+000 0.000000000000e+000
          2.099999999999e+000 0.000000000000e+000 0.000000000000e+000
          2.199999999999e+000 0.000000000000e+000 0.000000000000e+000
          2.300000000000e+000 0.000000000000e+000 0.000000000000e+000
          2.400000000000e+000 9.999999999974e-002 0.000000000000e+000
          2.300000000000e+000 2.000000000000e-001 0.000000000000e+000
          2.200000000000e+000 2.000000000000e-001 0.000000000000e+000
          2.100000000000e+000 2.000000000000e-001 0.000000000000e+000
          2.000000000001e+000 2.000000000000e-001 0.000000000000e+000
          1.900000000001e+000 2.000000000000e-001 0.000000000000e+000
          1.800000000001e+000 2.000000000000e-001 0.000000000000e+000
          1.700000000002e+000 2.000000000000e-001 0.000000000000e+000
          1.600000000002e+000 2.000000000000e-001 0.000000000000e+000
          1.500000000002e+000 2.000000000000e-001 0.000000000000e+000
          1.400000000003e+000 2.000000000000e-001 0.000000000000e+000
          1.300000000003e+000 2.000000000000e-001 0.000000000000e+000
          1.200000000003e+000 2.000000000000e-001 0.000000000000e+000
          1.100000000003e+000 2.000000000000e-001 0.000000000000e+000
          1.000000000003e+000 2.000000000000e-001 0.000000000000e+000
          9.000000000023e-001 2.000000000000e-001 0.000000000000e+000
          8.000000000020e-001 2.000000000000e-001 0.000000000000e+000
          7.000000000018e-001 2.000000000000e-001 0.000000000000e+000
          6.000000000015e-001 2.000000000000e-001 0.000000000000e+000
          5.000000000013e-001 2.000000000000e-001 0.000000000000e+000
          4.000000000010e-001 2.000000000000e-001 0.000000000000e+000
          3.000000000008e-001 2.000000000000e-001 0.000000000000e+000
          2.000000000005e-001 2.000000000000e-001 0.000000000000e+000
          1.000000000003e-001 2.000000000000e-001 0.000000000000e+000
          0.000000000000e+000 1.000000000003e-001 0.000000000000e+000
          2.151388888889e+000 1.020833333334e-001 0.000000000000e+000
          1.429846938774e-001 1.006377551020e-001 0.000000000000e+000
          3.499999999993e-001 9.999999999967e-002 0.000000000000e+000
          1.950000000001e+000 1.000000000005e-001 0.000000000000e+000
          5.499999999988e-001 9.999999999941e-002 0.000000000000e+000
          1.750000000002e+000 1.000000000007e-001 0.000000000000e+000
          7.499999999982e-001 9.999999999914e-002 0.000000000000e+000
          1.550000000002e+000 1.000000000010e-001 0.000000000000e+000
          9.499999999976e-001 9.999999999887e-002 0.000000000000e+000
          1.350000000003e+000 1.000000000013e-001 0.000000000000e+000
          1.150000000000e+000 9.999999999919e-002 0.000000000000e+000
          2.260292658730e+000 9.853670634922e-002 0.000000000000e+000
          1.250000000000e+000 1.000000000001e-001 0.000000000000e+000
          2.050231481482e+000 1.003472222223e-001 0.000000000000e+000
          2.488307823129e-001 1.001062925169e-001 0.000000000000e+000
          4.499999999997e-001 9.999999999985e-002 0.000000000000e+000
          1.850000000000e+000 1.000000000002e-001 0.000000000000e+000
          6.499999999995e-001 9.999999999976e-002 0.000000000000e+000
          1.650000000001e+000 1.000000000003e-001 0.000000000000e+000
          8.499999999993e-001 9.999999999967e-002 0.000000000000e+000
          1.450000000001e+000 1.000000000004e-001 0.000000000000e+000
          1.050000000000e+000 9.999999999968e-002 0.000000000000e+000
          7.105553383353e-002 7.340627629639e-002 0.000000000000e+000
          2.332079639436e+000 1.297502941896e-001 0.000000000000e+000
          2.339336915611e+000 6.361441277535e-002 0.000000000000e+000
          6.280804554225e-002 1.348088062797e-001 0.000000000000e+000
        </DataArray>
      </Points>
      <Cells>
        <DataArray type="Int32" Name="connectivity" format="ascii">
          40 41 73 
          23 24 65 
          17 18 72 
          42 43 71 
          44 45 69 
          21 22 68 
          19 20 70 
          46 47 67 
          48 49 66 
          15 16 64 
          40 73 62 
          17 72 61 
          42 71 60 
          19 70 59 
          44 69 58 
          21 68 57 
          46 67 56 
          23 65 55 
          48 66 54 
          18 59 72 
          41 60 73 
          24 52 65 
          43 58 71 
          22 55 68 
          45 56 69 
          47 54 67 
          20 57 70 
          49 53 66 
          16 61 64 
          15 64 62 
          29 52 63 
          25 63 52 
          28 29 63 
          25 26 63 
          39 40 62 
          16 17 61 
          41 42 60 
          18 19 59 
          43 44 58 
          20 21 57 
          45 46 56 
          22 23 55 
          47 48 54 
          24 25 52 
          29 30 52 
          49 50 53 
          4 5 53 
          6 7 54 
          31 32 55 
          8 9 56 
          33 34 57 
          10 11 58 
          35 36 59 
          12 13 60 
          37 38 61 
          14 15 62 
          39 62 64 
          38 64 61 
          30 65 52 
          5 66 53 
          6 54 66 
          7 67 54 
          31 55 65 
          32 68 55 
          8 56 67 
          9 69 56 
          33 57 68 
          34 70 57 
          10 58 69 
          11 71 58 
          35 59 70 
          36 72 59 
          12 60 71 
          13 73 60 
          37 61 72 
          14 62 73 
          38 39 64 
          5 6 66 
          30 31 65 
          7 8 67 
          32 33 68 
          9 10 69 
          34 35 70 
          11 12 71 
          36 37 72 
          13 14 73 
          50 77 53 
          0 74 51 
          0 4 74 
          4 53 74 
          26 76 63 
          2 75 27 
          2 28 75 
          28 63 75 
          53 77 74 
          1 76 26 
          1 27 76 
          3 77 50 
          3 51 77 
          63 76 75 
          51 74 77 
          27 75 76 
        </DataArray>
        <DataArray type="Int32" Name="offsets" format="ascii">
          3 6 9 12 15 18 21 24 27 30 33 36 39 42 45 48 51 54 57 60 63 66 69 72 75 78 81 84 87 90 93 96 99 102 105 108 111 114 117 120 123 126 129 132 135 138 141 144 147 150 153 156 159 162 165 168 171 174 177 180 183 186 189 192 195 198 201 204 207 210 213 216 219 222 225 228 231 234 237 240 243 246 249 252 255 258 261 264 267 270 273 276 279 282 285 288 291 294 297 300 303 306 
        </DataArray>
        <DataArray type="UInt8" Name="types" format="ascii">
          5 5 5 5 5 5 5 5 5 5 5 5 5 5 5 5 5 5 5 5 5 5 5 5 5 5 5 5 5 5 5 5 5 5 5 5 5 5 5 5 5 5 5 5 5 5 5 5 5 5 5 5 5 5 5 5 5 5 5 5 5 5 5 5 5 5 5 5 5 5 5 5 5 5 5 5 5 5 5 5 5 5 5 5 5 5 5 5 5 5 5 5 5 5 5 5 5 5 5 5 5 5 
        </DataArray>
      </Cells>
      <PointData Scalars="CAPILLARY_PRESSURE">
        <DataArray type="Float64" Name="CAPILLARY_PRESSURE" format="ascii">
          1.527801406200e+005 1.540888038322e+005 1.540888373882e+005 1.527801406200e+005 1.532454898574e+005 1.537058431700e+005 1.541522661648e+005 1.545348118961e+005 1.547678078867e+005 1.547773776735e+005 1.545662546458e+005 1.542127123430e+005 1.538104866400e+005 1.534314775989e+005 1.531228010514e+005 1.529106690763e+005 1.528002706080e+005 1.527772116028e+005 1.528198209677e+005 1.529162809167e+005 1.530594161332e+005 1.532292985162e+005 1.534136182450e+005 1.535981708999e+005 1.537603875628e+005 1.538952484794e+005 1.540020327744e+005 1.540912605819e+005 1.540018649809e+005 1.538953694340e+005 1.537602916773e+005 1.535981097709e+005 1.534136707555e+005 1.532293121877e+005 1.530594085687e+005 1.529162778970e+005 1.528198208849e+005 1.527772118005e+005 1.528002706887e+005 1.529106690963e+005 1.531228010546e+005 1.534314775989e+005 1.538104866393e+005 1.542127123394e+005 1.545662546246e+005 1.547773775622e+005 1.547678073818e+005 1.545348099179e+005 1.541522592830e+005 1.537058257186e+005 1.532454619575e+005 1.527801406200e+005 1.538342034033e+005 1.534437465514e+005 1.543563940554e+005 1.535078765563e+005 1.548026203435e+005 1.531423107090e+005 1.544011178867e+005 1.528615761284e+005 1.536146168173e+005 1.527792397848e+005 1.530038325656e+005 1.539622197010e+005 1.528432707308e+005 1.536824078176e+005 1.539277427911e+005 1.546757721670e+005 1.533198624929e+005 1.546956315294e+005 1.529829972382e+005 1.540125525482e+005 1.527913937778e+005 1.532662355059e+005 1.531116251824e+005 1.540314027526e+005 1.540378329042e+005 1.530734422632e+005 
        </DataArray>
        <DataArray type="Float64" Name="GAS_PRESSURE" format="ascii">
          1.013250000000e+005 1.001646807476e+005 1.001649115096e+005 1.013250000000e+005 1.031520345189e+005 1.048176365415e+005 1.062026881032e+005 1.071870638565e+005 1.076661425451e+005 1.075879401061e+005 1.070012600754e+005 1.060397838403e+005 1.048583590158e+005 1.036010324196e+005 1.023972530094e+005 1.013496887134e+005 1.005137695225e+005 9.989648191467e+004 9.948598835460e+004 9.927235463245e+004 9.922224106559e+004 9.928325817706e+004 9.942988460806e+004 9.961087336297e+004 9.978961443472e+004 9.994456247414e+004 1.000712956995e+005 1.001688619467e+005 1.000711820929e+005 9.994466623900e+004 9.978969903224e+004 9.961066177986e+004 9.942990214845e+004 9.928331014826e+004 9.922224241545e+004 9.927234839776e+004 9.948598663914e+004 9.989648184332e+004 1.005137696170e+005 1.013496887581e+005 1.023972530220e+005 1.036010324214e+005 1.048583590124e+005 1.060397838232e+005 1.070012599955e+005 1.075879397387e+005 1.076661409232e+005 1.071870570193e+005 1.062026601370e+005 1.048175376417e+005 1.031519159210e+005 1.013250000000e+005 9.987490653074e+004 1.038953461589e+005 1.067523245635e+005 9.952004850699e+004 1.076962808224e+005 9.924093383768e+004 1.065575674781e+005 9.935566569858e+004 1.042306954420e+005 1.001785466234e+005 1.018491911114e+005 1.000236247106e+005 1.009039353849e+005 9.970111488767e+004 1.055376759247e+005 1.074949611441e+005 9.934783936068e+004 1.073510326752e+005 9.923045643043e+004 1.054672427689e+005 9.966594261445e+004 1.029851488213e+005 1.026316311259e+005 1.001024745831e+005 1.001096875779e+005 1.024830673255e+005 
        </DataArray>
        <DataArray type="Float64" Name="TEMPERATURE" format="ascii">
          3.431500000000e+002 3.597307371125e+002 3.597341421316e+002 3.431500000000e+002 3.431498030110e+002 3.431493933753e+002 3.431489427283e+002 3.431485474339e+002 3.431482923049e+002 3.431482500921e+002 3.431484159202e+002 3.431487132505e+002 3.431490479432e+002 3.431493513327e+002 3.431495914843e+002 3.431497674239e+002 3.431498947227e+002 3.431499815979e+002 3.431500150356e+002 3.431503627412e+002 3.431550372248e+002 3.431854804034e+002 3.433190006668e+002 3.437593829934e+002 3.449253558990e+002 3.474712351411e+002 3.521522497698e+002 3.599031848646e+002 3.521551986400e+002 3.474698558838e+002 3.449248808372e+002 3.437592427066e+002 3.433189485801e+002 3.431854721309e+002 3.431550348728e+002 3.431503623852e+002 3.431500149528e+002 3.431499815900e+002 3.431498947213e+002 3.431497674239e+002 3.431495914843e+002 3.431493513328e+002 3.431490479433e+002 3.431487132506e+002 3.431484159202e+002 3.431482500928e+002 3.431482923058e+002 3.431485474340e+002 3.431489427527e+002 3.431493933868e+002 3.431498035050e+002 3.431500000000e+002 3.460046909340e+002 3.431496173678e+002 3.431487336622e+002 3.434803369464e+002 3.431482428519e+002 3.431641833523e+002 3.431485543029e+002 3.431500655659e+002 3.431492063898e+002 3.431499439289e+002 3.431496866759e+002 3.499924668550e+002 3.431498360868e+002 3.442178045964e+002 3.431491752063e+002 3.431483961781e+002 3.432306261010e+002 3.431483106345e+002 3.431515190048e+002 3.431488810690e+002 3.431500038380e+002 3.431494799673e+002 3.431499239521e+002 3.543123026277e+002 3.548293309525e+002 3.431499454638e+002 
        </DataArray>
      </PointData>
      <CellData>
        <DataArray type="Float64" Name="Saturation" format="ascii">
          1.307776034095e-001 1.334569952007e-001 1.276067276858e-001 1.356247584601e-001 1.399494510032e-001 1.310911759955e-001 1.288730007838e-001 1.398188591546e-001 1.350812703916e-001 1.279753224309e-001 1.298338278249e-001 1.275164383685e-001 1.343229053469e-001 1.284342323037e-001 1.391414956360e-001 1.304932463455e-001 1.403929882479e-001 1.329044038748e-001 1.364939513172e-001 1.277943549909e-001 1.318597598033e-001 1.339727032233e-001 1.369054496971e-001 1.317040320860e-001 1.404560196977e-001 1.389349642736e-001 1.293735990457e-001 1.335359079949e-001 1.276831424107e-001 1.284273620231e-001 1.348770738722e-001 1.348768105140e-001 1.352419390098e-001 1.352420407206e-001 1.290471197926e-001 1.275361903767e-001 1.330532732761e-001 1.280719154015e-001 1.381016603066e-001 1.299182574945e-001 1.406105527411e-001 1.323151918865e-001 1.378068642447e-001 1.344370659016e-001 1.344371204016e-001 1.320411614547e-001 1.320412610564e-001 1.378068833777e-001 1.323151730902e-001 1.406105540597e-001 1.299182709689e-001 1.381016603600e-001 1.280719085105e-001 1.330532732778e-001 1.275361909960e-001 1.290471197412e-001 1.284273620676e-001 1.276831425901e-001 1.339724938885e-001 1.335359461418e-001 1.364939662283e-001 1.389349685286e-001 1.329042699952e-001 1.317041475020e-001 1.403929893289e-001 1.404560199359e-001 1.304932765030e-001 1.293735823039e-001 1.391414956816e-001 1.369054497049e-001 1.284342256019e-001 1.277943548069e-001 1.343229053486e-001 1.318597598034e-001 1.275164388084e-001 1.298338278180e-001 1.279753226547e-001 1.350813233654e-001 1.334566519100e-001 1.398188644835e-001 1.310913216864e-001 1.399494512871e-001 1.288729773282e-001 1.356247584695e-001 1.276067279415e-001 1.307776034027e-001 1.306499352559e-001 1.282364136692e-001 1.292679731470e-001 1.307342425516e-001 1.355520251988e-001 1.360067628588e-001 1.358127119826e-001 1.355376904379e-001 1.303546413658e-001 1.358269650697e-001 1.360206455266e-001 1.291833913878e-001 1.281517005878e-001 1.356158344205e-001 1.288871360441e-001 1.358960669024e-001 
        </DataArray>
        <DataArray type="Int32" Name="MatGroup" format="ascii">
          0 0 0 0 0 0 0 0 0 0 0 0 0 0 0 0 0 0 0 0 0 0 0 0 0 0 0 0 0 0 0 0 0 0 0 0 0 0 0 0 0 0 0 0 0 0 0 0 0 0 0 0 0 0 0 0 0 0 0 0 0 0 0 0 0 0 0 0 0 0 0 0 0 0 0 0 0 0 0 0 0 0 0 0 0 0 0 0 0 0 0 0 0 0 0 0 0 0 0 0 0 0 
        </DataArray>
      </CellData>
    </Piece>
  </UnstructuredGrid>
</VTKFile>
