<?xml version="1.0"?>
<VTKFile type="UnstructuredGrid" version="0.1" byte_order="LittleEndian">
  <UnstructuredGrid>
    <Piece NumberOfPoints="78" NumberOfCells="102">
      <Points>
        <DataArray type="Float64" NumberOfComponents="3" format="ascii">
          0.000000000000e+000 0.000000000000e+000 0.000000000000e+000
          2.400000000000e+000 0.000000000000e+000 0.000000000000e+000
          2.400000000000e+000 2.000000000000e-001 0.000000000000e+000
          0.000000000000e+000 2.000000000000e-001 0.000000000000e+000
          9.999999999980e-002 0.000000000000e+000 0.000000000000e+000
          1.999999999996e-001 0.000000000000e+000 0.000000000000e+000
          2.999999999995e-001 0.000000000000e+000 0.000000000000e+000
          3.999999999992e-001 0.000000000000e+000 0.000000000000e+000
          4.999999999989e-001 0.000000000000e+000 0.000000000000e+000
          5.999999999986e-001 0.000000000000e+000 0.000000000000e+000
          6.999999999983e-001 0.000000000000e+000 0.000000000000e+000
          7.999999999980e-001 0.000000000000e+000 0.000000000000e+000
          8.999999999978e-001 0.000000000000e+000 0.000000000000e+000
          9.999999999975e-001 0.000000000000e+000 0.000000000000e+000
          1.099999999997e+000 0.000000000000e+000 0.000000000000e+000
          1.199999999997e+000 0.000000000000e+000 0.000000000000e+000
          1.299999999997e+000 0.000000000000e+000 0.000000000000e+000
          1.399999999997e+000 0.000000000000e+000 0.000000000000e+000
          1.499999999998e+000 0.000000000000e+000 0.000000000000e+000
          1.599999999998e+000 0.000000000000e+000 0.000000000000e+000
          1.699999999998e+000 0.000000000000e+000 0.000000000000e+000
          1.799999999998e+000 0.000000000000e+000 0.000000000000e+000
          1.899999999999e+000 0.000000000000e+000 0.000000000000e+000
          1.999999999999e+000 0.000000000000e+000 0.000000000000e+000
          2.099999999999e+000 0.000000000000e+000 0.000000000000e+000
          2.199999999999e+000 0.000000000000e+000 0.000000000000e+000
          2.300000000000e+000 0.000000000000e+000 0.000000000000e+000
          2.400000000000e+000 9.999999999974e-002 0.000000000000e+000
          2.300000000000e+000 2.000000000000e-001 0.000000000000e+000
          2.200000000000e+000 2.000000000000e-001 0.000000000000e+000
          2.100000000000e+000 2.000000000000e-001 0.000000000000e+000
          2.000000000001e+000 2.000000000000e-001 0.000000000000e+000
          1.900000000001e+000 2.000000000000e-001 0.000000000000e+000
          1.800000000001e+000 2.000000000000e-001 0.000000000000e+000
          1.700000000002e+000 2.000000000000e-001 0.000000000000e+000
          1.600000000002e+000 2.000000000000e-001 0.000000000000e+000
          1.500000000002e+000 2.000000000000e-001 0.000000000000e+000
          1.400000000003e+000 2.000000000000e-001 0.000000000000e+000
          1.300000000003e+000 2.000000000000e-001 0.000000000000e+000
          1.200000000003e+000 2.000000000000e-001 0.000000000000e+000
          1.100000000003e+000 2.000000000000e-001 0.000000000000e+000
          1.000000000003e+000 2.000000000000e-001 0.000000000000e+000
          9.000000000023e-001 2.000000000000e-001 0.000000000000e+000
          8.000000000020e-001 2.000000000000e-001 0.000000000000e+000
          7.000000000018e-001 2.000000000000e-001 0.000000000000e+000
          6.000000000015e-001 2.000000000000e-001 0.000000000000e+000
          5.000000000013e-001 2.000000000000e-001 0.000000000000e+000
          4.000000000010e-001 2.000000000000e-001 0.000000000000e+000
          3.000000000008e-001 2.000000000000e-001 0.000000000000e+000
          2.000000000005e-001 2.000000000000e-001 0.000000000000e+000
          1.000000000003e-001 2.000000000000e-001 0.000000000000e+000
          0.000000000000e+000 1.000000000003e-001 0.000000000000e+000
          2.151388888889e+000 1.020833333334e-001 0.000000000000e+000
          1.429846938774e-001 1.006377551020e-001 0.000000000000e+000
          3.499999999993e-001 9.999999999967e-002 0.000000000000e+000
          1.950000000001e+000 1.000000000005e-001 0.000000000000e+000
          5.499999999988e-001 9.999999999941e-002 0.000000000000e+000
          1.750000000002e+000 1.000000000007e-001 0.000000000000e+000
          7.499999999982e-001 9.999999999914e-002 0.000000000000e+000
          1.550000000002e+000 1.000000000010e-001 0.000000000000e+000
          9.499999999976e-001 9.999999999887e-002 0.000000000000e+000
          1.350000000003e+000 1.000000000013e-001 0.000000000000e+000
          1.150000000000e+000 9.999999999919e-002 0.000000000000e+000
          2.260292658730e+000 9.853670634922e-002 0.000000000000e+000
          1.250000000000e+000 1.000000000001e-001 0.000000000000e+000
          2.050231481482e+000 1.003472222223e-001 0.000000000000e+000
          2.488307823129e-001 1.001062925169e-001 0.000000000000e+000
          4.499999999997e-001 9.999999999985e-002 0.000000000000e+000
          1.850000000000e+000 1.000000000002e-001 0.000000000000e+000
          6.499999999995e-001 9.999999999976e-002 0.000000000000e+000
          1.650000000001e+000 1.000000000003e-001 0.000000000000e+000
          8.499999999993e-001 9.999999999967e-002 0.000000000000e+000
          1.450000000001e+000 1.000000000004e-001 0.000000000000e+000
          1.050000000000e+000 9.999999999968e-002 0.000000000000e+000
          7.105553383353e-002 7.340627629639e-002 0.000000000000e+000
          2.332079639436e+000 1.297502941896e-001 0.000000000000e+000
          2.339336915611e+000 6.361441277535e-002 0.000000000000e+000
          6.280804554225e-002 1.348088062797e-001 0.000000000000e+000
        </DataArray>
      </Points>
      <Cells>
        <DataArray type="Int32" Name="connectivity" format="ascii">
          40 41 73 
          23 24 65 
          17 18 72 
          42 43 71 
          44 45 69 
          21 22 68 
          19 20 70 
          46 47 67 
          48 49 66 
          15 16 64 
          40 73 62 
          17 72 61 
          42 71 60 
          19 70 59 
          44 69 58 
          21 68 57 
          46 67 56 
          23 65 55 
          48 66 54 
          18 59 72 
          41 60 73 
          24 52 65 
          43 58 71 
          22 55 68 
          45 56 69 
          47 54 67 
          20 57 70 
          49 53 66 
          16 61 64 
          15 64 62 
          29 52 63 
          25 63 52 
          28 29 63 
          25 26 63 
          39 40 62 
          16 17 61 
          41 42 60 
          18 19 59 
          43 44 58 
          20 21 57 
          45 46 56 
          22 23 55 
          47 48 54 
          24 25 52 
          29 30 52 
          49 50 53 
          4 5 53 
          6 7 54 
          31 32 55 
          8 9 56 
          33 34 57 
          10 11 58 
          35 36 59 
          12 13 60 
          37 38 61 
          14 15 62 
          39 62 64 
          38 64 61 
          30 65 52 
          5 66 53 
          6 54 66 
          7 67 54 
          31 55 65 
          32 68 55 
          8 56 67 
          9 69 56 
          33 57 68 
          34 70 57 
          10 58 69 
          11 71 58 
          35 59 70 
          36 72 59 
          12 60 71 
          13 73 60 
          37 61 72 
          14 62 73 
          38 39 64 
          5 6 66 
          30 31 65 
          7 8 67 
          32 33 68 
          9 10 69 
          34 35 70 
          11 12 71 
          36 37 72 
          13 14 73 
          50 77 53 
          0 74 51 
          0 4 74 
          4 53 74 
          26 76 63 
          2 75 27 
          2 28 75 
          28 63 75 
          53 77 74 
          1 76 26 
          1 27 76 
          3 77 50 
          3 51 77 
          63 76 75 
          51 74 77 
          27 75 76 
        </DataArray>
        <DataArray type="Int32" Name="offsets" format="ascii">
          3 6 9 12 15 18 21 24 27 30 33 36 39 42 45 48 51 54 57 60 63 66 69 72 75 78 81 84 87 90 93 96 99 102 105 108 111 114 117 120 123 126 129 132 135 138 141 144 147 150 153 156 159 162 165 168 171 174 177 180 183 186 189 192 195 198 201 204 207 210 213 216 219 222 225 228 231 234 237 240 243 246 249 252 255 258 261 264 267 270 273 276 279 282 285 288 291 294 297 300 303 306 
        </DataArray>
        <DataArray type="UInt8" Name="types" format="ascii">
          5 5 5 5 5 5 5 5 5 5 5 5 5 5 5 5 5 5 5 5 5 5 5 5 5 5 5 5 5 5 5 5 5 5 5 5 5 5 5 5 5 5 5 5 5 5 5 5 5 5 5 5 5 5 5 5 5 5 5 5 5 5 5 5 5 5 5 5 5 5 5 5 5 5 5 5 5 5 5 5 5 5 5 5 5 5 5 5 5 5 5 5 5 5 5 5 5 5 5 5 5 5 
        </DataArray>
      </Cells>
      <PointData Scalars="CAPILLARY_PRESSURE">
        <DataArray type="Float64" Name="CAPILLARY_PRESSURE" format="ascii">
          1.527801406200e+005 1.518942481251e+005 1.518943281048e+005 1.527801406200e+005 1.528415063690e+005 1.529322485169e+005 1.530533001132e+005 1.531982256926e+005 1.533532906549e+005 1.535004499605e+005 1.536203862223e+005 1.536954159869e+005 1.537128892150e+005 1.536692067683e+005 1.535723046220e+005 1.534388395804e+005 1.532849653737e+005 1.531174991946e+005 1.529373681014e+005 1.527523821050e+005 1.525723606323e+005 1.523958130945e+005 1.522341428695e+005 1.520988859734e+005 1.519904035398e+005 1.519166984240e+005 1.518786227211e+005 1.519011590082e+005 1.518785413203e+005 1.519167928765e+005 1.519903129698e+005 1.520988146520e+005 1.522341909646e+005 1.523958272062e+005 1.525723536281e+005 1.527523792123e+005 1.529373680052e+005 1.531174993675e+005 1.532849654425e+005 1.534388395967e+005 1.535723046244e+005 1.536692067683e+005 1.537128892149e+005 1.536954159871e+005 1.536203862224e+005 1.535004499586e+005 1.533532906413e+005 1.531982256319e+005 1.530532999051e+005 1.529322481725e+005 1.528414753311e+005 1.527801406200e+005 1.519488188462e+005 1.528766858933e+005 1.531234865914e+005 1.521636608937e+005 1.534290696734e+005 1.524835892740e+005 1.536644693506e+005 1.528446454374e+005 1.536984684434e+005 1.532028904599e+005 1.535089857080e+005 1.518884611605e+005 1.533637652527e+005 1.520398174662e+005 1.529876965287e+005 1.532755530904e+005 1.523116940568e+005 1.535649998656e+005 1.526616840991e+005 1.537118297904e+005 1.530287907496e+005 1.536264886313e+005 1.528214549313e+005 1.518775175503e+005 1.518777736107e+005 1.528159346764e+005 
        </DataArray>
        <DataArray type="Float64" Name="GAS_PRESSURE" format="ascii">
          1.013250000000e+005 1.000151778388e+005 1.000153858142e+005 1.013250000000e+005 1.019336830472e+005 1.025447561382e+005 1.031371988448e+005 1.036840467313e+005 1.041542179397e+005 1.045138368475e+005 1.047284995533e+005 1.047689255813e+005 1.046211180758e+005 1.042972636607e+005 1.038381366810e+005 1.032999669450e+005 1.027326197333e+005 1.021702302534e+005 1.016445079831e+005 1.011902660848e+005 1.008162248822e+005 1.005122863191e+005 1.002933372539e+005 1.001431726993e+005 1.000510489943e+005 1.000037947503e+005 9.999149807075e+004 1.000234517856e+005 9.999146285205e+004 1.000038604638e+005 1.000511528869e+005 1.001429630947e+005 1.002933466531e+005 1.005123353056e+005 1.008162269362e+005 1.011902605862e+005 1.016445064554e+005 1.021702301739e+005 1.027326198042e+005 1.032999669790e+005 1.038381366905e+005 1.042972636624e+005 1.046211180752e+005 1.047689255780e+005 1.047284995384e+005 1.045138367837e+005 1.041542176720e+005 1.036840456254e+005 1.031371943226e+005 1.025447404503e+005 1.019336365636e+005 1.013250000000e+005 1.000237922607e+005 1.021972342458e+005 1.034182113044e+005 1.002116667087e+005 1.043500285361e+005 1.006549334549e+005 1.047718679357e+005 1.014068995493e+005 1.044792437686e+005 1.024490005653e+005 1.035754377533e+005 9.999162469650e+004 1.030175083447e+005 1.000888161027e+005 1.028380379891e+005 1.039307868768e+005 1.003918305075e+005 1.046413368613e+005 1.009941942356e+005 1.047184988220e+005 1.019004630012e+005 1.040812009163e+005 1.017565520481e+005 9.999292264091e+004 9.999412885131e+004 1.017062201705e+005 
        </DataArray>
        <DataArray type="Float64" Name="TEMPERATURE" format="ascii">
          3.431500000000e+002 3.580948092783e+002 3.580991433995e+002 3.431500000000e+002 3.431499601479e+002 3.431498807032e+002 3.431497852387e+002 3.431496809843e+002 3.431495773955e+002 3.431494872334e+002 3.431494237220e+002 3.431493979687e+002 3.431494153160e+002 3.431494724514e+002 3.431495578478e+002 3.431496567255e+002 3.431497575511e+002 3.431498560153e+002 3.431499439880e+002 3.431499343382e+002 3.431499660674e+002 3.431553447222e+002 3.432024623245e+002 3.434323828861e+002 3.442257363915e+002 3.463036726380e+002 3.506209811391e+002 3.582744846616e+002 3.506253771050e+002 3.463022621078e+002 3.442252222405e+002 3.434322419606e+002 3.432024187728e+002 3.431553388844e+002 3.431499645160e+002 3.431499342123e+002 3.431499439630e+002 3.431498560180e+002 3.431497575512e+002 3.431496567256e+002 3.431495578478e+002 3.431494724514e+002 3.431494153160e+002 3.431493979688e+002 3.431494237221e+002 3.431494872334e+002 3.431495773956e+002 3.431496809842e+002 3.431497852420e+002 3.431498807036e+002 3.431499602461e+002 3.431500000000e+002 3.450648192298e+002 3.431499263345e+002 3.431497337404e+002 3.432780654049e+002 3.431495298027e+002 3.431510088694e+002 3.431494056135e+002 3.431499624770e+002 3.431494394767e+002 3.431498071042e+002 3.431496064629e+002 3.485856793295e+002 3.431497073496e+002 3.437230140887e+002 3.431498360192e+002 3.431496283271e+002 3.431686074613e+002 3.431494513606e+002 3.431498695612e+002 3.431494012413e+002 3.431499033398e+002 3.431495125458e+002 3.431499813429e+002 3.527263806807e+002 3.532362268954e+002 3.431499856235e+002 
        </DataArray>
      </PointData>
      <CellData>
        <DataArray type="Float64" Name="Saturation" format="ascii">
          1.330786291478e-001 1.225429370357e-001 1.291498299181e-001 1.336301256232e-001 1.326796212490e-001 1.243726836273e-001 1.267111292740e-001 1.307922432517e-001 1.289052649858e-001 1.313658760966e-001 1.327277095404e-001 1.297373597600e-001 1.336367967813e-001 1.273179397133e-001 1.330389068529e-001 1.249324527051e-001 1.313006202478e-001 1.229339098706e-001 1.293288180696e-001 1.285450166411e-001 1.333547003233e-001 1.222039362572e-001 1.335242862163e-001 1.238509022370e-001 1.322600589022e-001 1.302853992843e-001 1.261110375153e-001 1.285136283813e-001 1.308463436499e-001 1.318584048920e-001 1.216951081225e-001 1.216948943257e-001 1.215360023185e-001 1.215359727998e-001 1.323162539015e-001 1.303032412440e-001 1.335436320450e-001 1.279312254884e-001 1.333243124331e-001 1.255164275606e-001 1.317951685249e-001 1.233718982157e-001 1.297944886934e-001 1.219255609235e-001 1.219255697818e-001 1.281890500141e-001 1.281891197254e-001 1.297944892877e-001 1.233718458093e-001 1.317951685589e-001 1.255164434907e-001 1.333243124323e-001 1.279312188422e-001 1.335436320453e-001 1.303032417775e-001 1.323162538605e-001 1.318584049280e-001 1.308463438015e-001 1.222037315505e-001 1.285136291455e-001 1.293288185303e-001 1.302853994183e-001 1.229337490128e-001 1.238510104209e-001 1.313006202777e-001 1.322600589065e-001 1.249324843472e-001 1.261110218643e-001 1.330389068526e-001 1.335242862158e-001 1.273179332722e-001 1.285450164276e-001 1.336367967814e-001 1.333547003234e-001 1.297373601421e-001 1.327277095353e-001 1.313658762841e-001 1.289052662104e-001 1.225425714851e-001 1.307922434154e-001 1.243728233684e-001 1.326796212529e-001 1.267111071939e-001 1.336301256230e-001 1.291498300876e-001 1.330786291427e-001 1.279306424340e-001 1.275918425082e-001 1.277283382942e-001 1.279429821460e-001 1.214478174939e-001 1.215115679160e-001 1.214603417811e-001 1.214470530785e-001 1.278861399811e-001 1.214609250249e-001 1.215119667326e-001 1.277159927343e-001 1.275795622687e-001 1.214453140646e-001 1.276714691912e-001 1.214740739879e-001 
        </DataArray>
        <DataArray type="Int32" Name="MatGroup" format="ascii">
          0 0 0 0 0 0 0 0 0 0 0 0 0 0 0 0 0 0 0 0 0 0 0 0 0 0 0 0 0 0 0 0 0 0 0 0 0 0 0 0 0 0 0 0 0 0 0 0 0 0 0 0 0 0 0 0 0 0 0 0 0 0 0 0 0 0 0 0 0 0 0 0 0 0 0 0 0 0 0 0 0 0 0 0 0 0 0 0 0 0 0 0 0 0 0 0 0 0 0 0 0 0 
        </DataArray>
      </CellData>
    </Piece>
  </UnstructuredGrid>
</VTKFile>
