<?xml version="1.0"?>
<VTKFile type="UnstructuredGrid" version="0.1" byte_order="LittleEndian">
  <UnstructuredGrid>
    <Piece NumberOfPoints="78" NumberOfCells="102">
      <Points>
        <DataArray type="Float64" NumberOfComponents="3" format="ascii">
          0.000000000000e+000 0.000000000000e+000 0.000000000000e+000
          2.400000000000e+000 0.000000000000e+000 0.000000000000e+000
          2.400000000000e+000 2.000000000000e-001 0.000000000000e+000
          0.000000000000e+000 2.000000000000e-001 0.000000000000e+000
          9.999999999980e-002 0.000000000000e+000 0.000000000000e+000
          1.999999999996e-001 0.000000000000e+000 0.000000000000e+000
          2.999999999995e-001 0.000000000000e+000 0.000000000000e+000
          3.999999999992e-001 0.000000000000e+000 0.000000000000e+000
          4.999999999989e-001 0.000000000000e+000 0.000000000000e+000
          5.999999999986e-001 0.000000000000e+000 0.000000000000e+000
          6.999999999983e-001 0.000000000000e+000 0.000000000000e+000
          7.999999999980e-001 0.000000000000e+000 0.000000000000e+000
          8.999999999978e-001 0.000000000000e+000 0.000000000000e+000
          9.999999999975e-001 0.000000000000e+000 0.000000000000e+000
          1.099999999997e+000 0.000000000000e+000 0.000000000000e+000
          1.199999999997e+000 0.000000000000e+000 0.000000000000e+000
          1.299999999997e+000 0.000000000000e+000 0.000000000000e+000
          1.399999999997e+000 0.000000000000e+000 0.000000000000e+000
          1.499999999998e+000 0.000000000000e+000 0.000000000000e+000
          1.599999999998e+000 0.000000000000e+000 0.000000000000e+000
          1.699999999998e+000 0.000000000000e+000 0.000000000000e+000
          1.799999999998e+000 0.000000000000e+000 0.000000000000e+000
          1.899999999999e+000 0.000000000000e+000 0.000000000000e+000
          1.999999999999e+000 0.000000000000e+000 0.000000000000e+000
          2.099999999999e+000 0.000000000000e+000 0.000000000000e+000
          2.199999999999e+000 0.000000000000e+000 0.000000000000e+000
          2.300000000000e+000 0.000000000000e+000 0.000000000000e+000
          2.400000000000e+000 9.999999999974e-002 0.000000000000e+000
          2.300000000000e+000 2.000000000000e-001 0.000000000000e+000
          2.200000000000e+000 2.000000000000e-001 0.000000000000e+000
          2.100000000000e+000 2.000000000000e-001 0.000000000000e+000
          2.000000000001e+000 2.000000000000e-001 0.000000000000e+000
          1.900000000001e+000 2.000000000000e-001 0.000000000000e+000
          1.800000000001e+000 2.000000000000e-001 0.000000000000e+000
          1.700000000002e+000 2.000000000000e-001 0.000000000000e+000
          1.600000000002e+000 2.000000000000e-001 0.000000000000e+000
          1.500000000002e+000 2.000000000000e-001 0.000000000000e+000
          1.400000000003e+000 2.000000000000e-001 0.000000000000e+000
          1.300000000003e+000 2.000000000000e-001 0.000000000000e+000
          1.200000000003e+000 2.000000000000e-001 0.000000000000e+000
          1.100000000003e+000 2.000000000000e-001 0.000000000000e+000
          1.000000000003e+000 2.000000000000e-001 0.000000000000e+000
          9.000000000023e-001 2.000000000000e-001 0.000000000000e+000
          8.000000000020e-001 2.000000000000e-001 0.000000000000e+000
          7.000000000018e-001 2.000000000000e-001 0.000000000000e+000
          6.000000000015e-001 2.000000000000e-001 0.000000000000e+000
          5.000000000013e-001 2.000000000000e-001 0.000000000000e+000
          4.000000000010e-001 2.000000000000e-001 0.000000000000e+000
          3.000000000008e-001 2.000000000000e-001 0.000000000000e+000
          2.000000000005e-001 2.000000000000e-001 0.000000000000e+000
          1.000000000003e-001 2.000000000000e-001 0.000000000000e+000
          0.000000000000e+000 1.000000000003e-001 0.000000000000e+000
          2.151388888889e+000 1.020833333334e-001 0.000000000000e+000
          1.429846938774e-001 1.006377551020e-001 0.000000000000e+000
          3.499999999993e-001 9.999999999967e-002 0.000000000000e+000
          1.950000000001e+000 1.000000000005e-001 0.000000000000e+000
          5.499999999988e-001 9.999999999941e-002 0.000000000000e+000
          1.750000000002e+000 1.000000000007e-001 0.000000000000e+000
          7.499999999982e-001 9.999999999914e-002 0.000000000000e+000
          1.550000000002e+000 1.000000000010e-001 0.000000000000e+000
          9.499999999976e-001 9.999999999887e-002 0.000000000000e+000
          1.350000000003e+000 1.000000000013e-001 0.000000000000e+000
          1.150000000000e+000 9.999999999919e-002 0.000000000000e+000
          2.260292658730e+000 9.853670634922e-002 0.000000000000e+000
          1.250000000000e+000 1.000000000001e-001 0.000000000000e+000
          2.050231481482e+000 1.003472222223e-001 0.000000000000e+000
          2.488307823129e-001 1.001062925169e-001 0.000000000000e+000
          4.499999999997e-001 9.999999999985e-002 0.000000000000e+000
          1.850000000000e+000 1.000000000002e-001 0.000000000000e+000
          6.499999999995e-001 9.999999999976e-002 0.000000000000e+000
          1.650000000001e+000 1.000000000003e-001 0.000000000000e+000
          8.499999999993e-001 9.999999999967e-002 0.000000000000e+000
          1.450000000001e+000 1.000000000004e-001 0.000000000000e+000
          1.050000000000e+000 9.999999999968e-002 0.000000000000e+000
          7.105553383353e-002 7.340627629639e-002 0.000000000000e+000
          2.332079639436e+000 1.297502941896e-001 0.000000000000e+000
          2.339336915611e+000 6.361441277535e-002 0.000000000000e+000
          6.280804554225e-002 1.348088062797e-001 0.000000000000e+000
        </DataArray>
      </Points>
      <Cells>
        <DataArray type="Int32" Name="connectivity" format="ascii">
          40 41 73 
          23 24 65 
          17 18 72 
          42 43 71 
          44 45 69 
          21 22 68 
          19 20 70 
          46 47 67 
          48 49 66 
          15 16 64 
          40 73 62 
          17 72 61 
          42 71 60 
          19 70 59 
          44 69 58 
          21 68 57 
          46 67 56 
          23 65 55 
          48 66 54 
          18 59 72 
          41 60 73 
          24 52 65 
          43 58 71 
          22 55 68 
          45 56 69 
          47 54 67 
          20 57 70 
          49 53 66 
          16 61 64 
          15 64 62 
          29 52 63 
          25 63 52 
          28 29 63 
          25 26 63 
          39 40 62 
          16 17 61 
          41 42 60 
          18 19 59 
          43 44 58 
          20 21 57 
          45 46 56 
          22 23 55 
          47 48 54 
          24 25 52 
          29 30 52 
          49 50 53 
          4 5 53 
          6 7 54 
          31 32 55 
          8 9 56 
          33 34 57 
          10 11 58 
          35 36 59 
          12 13 60 
          37 38 61 
          14 15 62 
          39 62 64 
          38 64 61 
          30 65 52 
          5 66 53 
          6 54 66 
          7 67 54 
          31 55 65 
          32 68 55 
          8 56 67 
          9 69 56 
          33 57 68 
          34 70 57 
          10 58 69 
          11 71 58 
          35 59 70 
          36 72 59 
          12 60 71 
          13 73 60 
          37 61 72 
          14 62 73 
          38 39 64 
          5 6 66 
          30 31 65 
          7 8 67 
          32 33 68 
          9 10 69 
          34 35 70 
          11 12 71 
          36 37 72 
          13 14 73 
          50 77 53 
          0 74 51 
          0 4 74 
          4 53 74 
          26 76 63 
          2 75 27 
          2 28 75 
          28 63 75 
          53 77 74 
          1 76 26 
          1 27 76 
          3 77 50 
          3 51 77 
          63 76 75 
          51 74 77 
          27 75 76 
        </DataArray>
        <DataArray type="Int32" Name="offsets" format="ascii">
          3 6 9 12 15 18 21 24 27 30 33 36 39 42 45 48 51 54 57 60 63 66 69 72 75 78 81 84 87 90 93 96 99 102 105 108 111 114 117 120 123 126 129 132 135 138 141 144 147 150 153 156 159 162 165 168 171 174 177 180 183 186 189 192 195 198 201 204 207 210 213 216 219 222 225 228 231 234 237 240 243 246 249 252 255 258 261 264 267 270 273 276 279 282 285 288 291 294 297 300 303 306 
        </DataArray>
        <DataArray type="UInt8" Name="types" format="ascii">
          5 5 5 5 5 5 5 5 5 5 5 5 5 5 5 5 5 5 5 5 5 5 5 5 5 5 5 5 5 5 5 5 5 5 5 5 5 5 5 5 5 5 5 5 5 5 5 5 5 5 5 5 5 5 5 5 5 5 5 5 5 5 5 5 5 5 5 5 5 5 5 5 5 5 5 5 5 5 5 5 5 5 5 5 5 5 5 5 5 5 5 5 5 5 5 5 5 5 5 5 5 5 
        </DataArray>
      </Cells>
      <PointData Scalars="CAPILLARY_PRESSURE">
        <DataArray type="Float64" Name="CAPILLARY_PRESSURE" format="ascii">
          1.527801406200e+005 1.530279039238e+005 1.530279020403e+005 1.527801406200e+005 1.527941416484e+005 1.528091298819e+005 1.528256273827e+005 1.528436905165e+005 1.528625949030e+005 1.528807309613e+005 1.528958973701e+005 1.529061701533e+005 1.529111454730e+005 1.529127849210e+005 1.529147533795e+005 1.529197977505e+005 1.529268783377e+005 1.529320554248e+005 1.529348754792e+005 1.529416418766e+005 1.529534202815e+005 1.529613248181e+005 1.529709990146e+005 1.529827605007e+005 1.529913426737e+005 1.530009320918e+005 1.530107126109e+005 1.530303159484e+005 1.530105814844e+005 1.530010536691e+005 1.529913058758e+005 1.529826800686e+005 1.529710306179e+005 1.529613398501e+005 1.529534167868e+005 1.529416398648e+005 1.529348752884e+005 1.529320554785e+005 1.529268783645e+005 1.529197977576e+005 1.529147533807e+005 1.529127849211e+005 1.529111454730e+005 1.529061701533e+005 1.528958973703e+005 1.528807309626e+005 1.528625949089e+005 1.528436905427e+005 1.528256274970e+005 1.528091303474e+005 1.527941420713e+005 1.527801406200e+005 1.529972048892e+005 1.528004231721e+005 1.528344868648e+005 1.529776134744e+005 1.528718899826e+005 1.529580223927e+005 1.529017208468e+005 1.529373502383e+005 1.529121707951e+005 1.529299083297e+005 1.529168483652e+005 1.530060383384e+005 1.529233159191e+005 1.529864585895e+005 1.528169734807e+005 1.528531181319e+005 1.529651856866e+005 1.528888261067e+005 1.529474663703e+005 1.529092550332e+005 1.529334658188e+005 1.529134941900e+005 1.527900355653e+005 1.530144691947e+005 1.530154949687e+005 1.527888681944e+005 
        </DataArray>
        <DataArray type="Float64" Name="GAS_PRESSURE" format="ascii">
          1.013250000000e+005 1.018526257486e+005 1.018527031636e+005 1.013250000000e+005 1.013350975157e+005 1.013495121418e+005 1.013708203925e+005 1.013993190457e+005 1.014325355274e+005 1.014660630776e+005 1.014954037408e+005 1.015183264041e+005 1.015364890516e+005 1.015547259623e+005 1.015773268092e+005 1.016033710424e+005 1.016263626465e+005 1.016421771061e+005 1.016582788262e+005 1.016848347881e+005 1.017120264811e+005 1.017307868213e+005 1.017583000189e+005 1.017806201482e+005 1.018010897971e+005 1.018180576148e+005 1.018349980462e+005 1.018568029184e+005 1.018349303355e+005 1.018181169645e+005 1.018012688104e+005 1.017804453719e+005 1.017582849059e+005 1.017308241938e+005 1.017120312100e+005 1.016848318423e+005 1.016582778730e+005 1.016421770054e+005 1.016263626601e+005 1.016033710528e+005 1.015773268124e+005 1.015547259631e+005 1.015364890518e+005 1.015183264047e+005 1.014954037431e+005 1.014660630873e+005 1.014325355671e+005 1.013993192071e+005 1.013708210481e+005 1.013495146932e+005 1.013351008631e+005 1.013250000000e+005 1.018121703467e+005 1.013405589020e+005 1.013842612909e+005 1.017712934464e+005 1.014495667484e+005 1.017214817399e+005 1.015076614796e+005 1.016702682853e+005 1.015452571574e+005 1.016350055587e+005 1.015902458584e+005 1.018273246024e+005 1.016157045400e+005 1.017896807601e+005 1.013589494184e+005 1.014155843376e+005 1.017432916531e+005 1.014814759343e+005 1.016996515632e+005 1.015277449355e+005 1.016493216403e+005 1.015653755065e+005 1.013319672500e+005 1.018375999000e+005 1.018388805319e+005 1.013310817093e+005 
        </DataArray>
        <DataArray type="Float64" Name="TEMPERATURE" format="ascii">
          3.431500000000e+002 3.485363365228e+002 3.485109809423e+002 3.431500000000e+002 3.431499967475e+002 3.431499927956e+002 3.431499880482e+002 3.431499824685e+002 3.431499763703e+002 3.431499703770e+002 3.431499652469e+002 3.431499615252e+002 3.431499591729e+002 3.431499574529e+002 3.431499553490e+002 3.431499524046e+002 3.431499492971e+002 3.431499471194e+002 3.431499452521e+002 3.431499425736e+002 3.431499353173e+002 3.431499449867e+002 3.431499110200e+002 3.431496308002e+002 3.431549058710e+002 3.430842343973e+002 3.435721721525e+002 3.489300018579e+002 3.435743253439e+002 3.430854598964e+002 3.431551582093e+002 3.431496003292e+002 3.431499097431e+002 3.431499458509e+002 3.431499351727e+002 3.431499425853e+002 3.431499452538e+002 3.431499471195e+002 3.431499492973e+002 3.431499524047e+002 3.431499553502e+002 3.431499574536e+002 3.431499591728e+002 3.431499615261e+002 3.431499652468e+002 3.431499703770e+002 3.431499763702e+002 3.431499824680e+002 3.431499880481e+002 3.431499927952e+002 3.431499967483e+002 3.431500000000e+002 3.431369878980e+002 3.431499951353e+002 3.431499853510e+002 3.431494072163e+002 3.431499733134e+002 3.431499221794e+002 3.431499631957e+002 3.431499435835e+002 3.431499582993e+002 3.431499480475e+002 3.431499539664e+002 3.431870188832e+002 3.431499507953e+002 3.431530306638e+002 3.431499905893e+002 3.431499794514e+002 3.431500186561e+002 3.431499676602e+002 3.431499420517e+002 3.431499602099e+002 3.431499463694e+002 3.431499565022e+002 3.431499977544e+002 3.445549265750e+002 3.448486701321e+002 3.431499980342e+002 
        </DataArray>
      </PointData>
      <CellData>
        <DataArray type="Float64" Name="Saturation" format="ascii">
          1.283902790371e-001 1.288771954411e-001 1.285220180222e-001 1.283581780461e-001 1.282224842654e-001 1.287374168416e-001 1.286154840542e-001 1.279868958514e-001 1.277475388500e-001 1.284545512298e-001 1.283992980981e-001 1.285109970473e-001 1.283714980857e-001 1.285798369507e-001 1.282690933218e-001 1.287086423440e-001 1.280495558335e-001 1.288467645031e-001 1.278039219000e-001 1.285337655804e-001 1.283845466998e-001 1.289092085300e-001 1.283372564792e-001 1.287735320098e-001 1.281691668940e-001 1.279244274898e-001 1.286518161760e-001 1.276914848468e-001 1.284769876508e-001 1.284322922577e-001 1.289741166405e-001 1.289738472516e-001 1.290037548808e-001 1.290037760248e-001 1.284132887683e-001 1.284963803519e-001 1.283793333678e-001 1.285519048781e-001 1.283076018133e-001 1.286825513626e-001 1.281109012033e-001 1.288124947488e-001 1.278633201976e-001 1.289412832864e-001 1.289414711488e-001 1.276407003213e-001 1.276406983453e-001 1.278633198852e-001 1.288123865104e-001 1.281109011873e-001 1.286825769478e-001 1.283076018126e-001 1.285518999915e-001 1.283793333675e-001 1.284963805304e-001 1.284132887497e-001 1.284322922735e-001 1.284769877101e-001 1.289091269782e-001 1.276914838116e-001 1.278039216458e-001 1.279244274315e-001 1.288465862169e-001 1.287736020771e-001 1.280495558204e-001 1.281691668911e-001 1.287086756776e-001 1.286518084251e-001 1.282690933213e-001 1.283372564791e-001 1.285798324879e-001 1.285337651569e-001 1.283714980858e-001 1.283845466995e-001 1.285109971665e-001 1.283992980953e-001 1.284545513049e-001 1.277475375607e-001 1.288769356094e-001 1.279868957799e-001 1.287375202461e-001 1.282224842620e-001 1.286154718403e-001 1.283581780461e-001 1.285220177179e-001 1.283902790340e-001 1.275956244453e-001 1.275219387810e-001 1.275530933016e-001 1.275982207209e-001 1.290360397902e-001 1.291256199149e-001 1.290819093336e-001 1.290334768631e-001 1.275864881159e-001 1.290844761579e-001 1.291278960557e-001 1.275504967675e-001 1.275193411274e-001 1.290443618749e-001 1.275413595284e-001 1.290981397029e-001 
        </DataArray>
        <DataArray type="Int32" Name="MatGroup" format="ascii">
          0 0 0 0 0 0 0 0 0 0 0 0 0 0 0 0 0 0 0 0 0 0 0 0 0 0 0 0 0 0 0 0 0 0 0 0 0 0 0 0 0 0 0 0 0 0 0 0 0 0 0 0 0 0 0 0 0 0 0 0 0 0 0 0 0 0 0 0 0 0 0 0 0 0 0 0 0 0 0 0 0 0 0 0 0 0 0 0 0 0 0 0 0 0 0 0 0 0 0 0 0 0 
        </DataArray>
      </CellData>
    </Piece>
  </UnstructuredGrid>
</VTKFile>
