<?xml version="1.0"?>
<VTKFile type="UnstructuredGrid" version="0.1" byte_order="LittleEndian">
  <UnstructuredGrid>
    <Piece NumberOfPoints="78" NumberOfCells="102">
      <Points>
        <DataArray type="Float64" NumberOfComponents="3" format="ascii">
          0.000000000000e+000 0.000000000000e+000 0.000000000000e+000
          2.400000000000e+000 0.000000000000e+000 0.000000000000e+000
          2.400000000000e+000 2.000000000000e-001 0.000000000000e+000
          0.000000000000e+000 2.000000000000e-001 0.000000000000e+000
          9.999999999980e-002 0.000000000000e+000 0.000000000000e+000
          1.999999999996e-001 0.000000000000e+000 0.000000000000e+000
          2.999999999995e-001 0.000000000000e+000 0.000000000000e+000
          3.999999999992e-001 0.000000000000e+000 0.000000000000e+000
          4.999999999989e-001 0.000000000000e+000 0.000000000000e+000
          5.999999999986e-001 0.000000000000e+000 0.000000000000e+000
          6.999999999983e-001 0.000000000000e+000 0.000000000000e+000
          7.999999999980e-001 0.000000000000e+000 0.000000000000e+000
          8.999999999978e-001 0.000000000000e+000 0.000000000000e+000
          9.999999999975e-001 0.000000000000e+000 0.000000000000e+000
          1.099999999997e+000 0.000000000000e+000 0.000000000000e+000
          1.199999999997e+000 0.000000000000e+000 0.000000000000e+000
          1.299999999997e+000 0.000000000000e+000 0.000000000000e+000
          1.399999999997e+000 0.000000000000e+000 0.000000000000e+000
          1.499999999998e+000 0.000000000000e+000 0.000000000000e+000
          1.599999999998e+000 0.000000000000e+000 0.000000000000e+000
          1.699999999998e+000 0.000000000000e+000 0.000000000000e+000
          1.799999999998e+000 0.000000000000e+000 0.000000000000e+000
          1.899999999999e+000 0.000000000000e+000 0.000000000000e+000
          1.999999999999e+000 0.000000000000e+000 0.000000000000e+000
          2.099999999999e+000 0.000000000000e+000 0.000000000000e+000
          2.199999999999e+000 0.000000000000e+000 0.000000000000e+000
          2.300000000000e+000 0.000000000000e+000 0.000000000000e+000
          2.400000000000e+000 9.999999999974e-002 0.000000000000e+000
          2.300000000000e+000 2.000000000000e-001 0.000000000000e+000
          2.200000000000e+000 2.000000000000e-001 0.000000000000e+000
          2.100000000000e+000 2.000000000000e-001 0.000000000000e+000
          2.000000000001e+000 2.000000000000e-001 0.000000000000e+000
          1.900000000001e+000 2.000000000000e-001 0.000000000000e+000
          1.800000000001e+000 2.000000000000e-001 0.000000000000e+000
          1.700000000002e+000 2.000000000000e-001 0.000000000000e+000
          1.600000000002e+000 2.000000000000e-001 0.000000000000e+000
          1.500000000002e+000 2.000000000000e-001 0.000000000000e+000
          1.400000000003e+000 2.000000000000e-001 0.000000000000e+000
          1.300000000003e+000 2.000000000000e-001 0.000000000000e+000
          1.200000000003e+000 2.000000000000e-001 0.000000000000e+000
          1.100000000003e+000 2.000000000000e-001 0.000000000000e+000
          1.000000000003e+000 2.000000000000e-001 0.000000000000e+000
          9.000000000023e-001 2.000000000000e-001 0.000000000000e+000
          8.000000000020e-001 2.000000000000e-001 0.000000000000e+000
          7.000000000018e-001 2.000000000000e-001 0.000000000000e+000
          6.000000000015e-001 2.000000000000e-001 0.000000000000e+000
          5.000000000013e-001 2.000000000000e-001 0.000000000000e+000
          4.000000000010e-001 2.000000000000e-001 0.000000000000e+000
          3.000000000008e-001 2.000000000000e-001 0.000000000000e+000
          2.000000000005e-001 2.000000000000e-001 0.000000000000e+000
          1.000000000003e-001 2.000000000000e-001 0.000000000000e+000
          0.000000000000e+000 1.000000000003e-001 0.000000000000e+000
          2.151388888889e+000 1.020833333334e-001 0.000000000000e+000
          1.429846938774e-001 1.006377551020e-001 0.000000000000e+000
          3.499999999993e-001 9.999999999967e-002 0.000000000000e+000
          1.950000000001e+000 1.000000000005e-001 0.000000000000e+000
          5.499999999988e-001 9.999999999941e-002 0.000000000000e+000
          1.750000000002e+000 1.000000000007e-001 0.000000000000e+000
          7.499999999982e-001 9.999999999914e-002 0.000000000000e+000
          1.550000000002e+000 1.000000000010e-001 0.000000000000e+000
          9.499999999976e-001 9.999999999887e-002 0.000000000000e+000
          1.350000000003e+000 1.000000000013e-001 0.000000000000e+000
          1.150000000000e+000 9.999999999919e-002 0.000000000000e+000
          2.260292658730e+000 9.853670634922e-002 0.000000000000e+000
          1.250000000000e+000 1.000000000001e-001 0.000000000000e+000
          2.050231481482e+000 1.003472222223e-001 0.000000000000e+000
          2.488307823129e-001 1.001062925169e-001 0.000000000000e+000
          4.499999999997e-001 9.999999999985e-002 0.000000000000e+000
          1.850000000000e+000 1.000000000002e-001 0.000000000000e+000
          6.499999999995e-001 9.999999999976e-002 0.000000000000e+000
          1.650000000001e+000 1.000000000003e-001 0.000000000000e+000
          8.499999999993e-001 9.999999999967e-002 0.000000000000e+000
          1.450000000001e+000 1.000000000004e-001 0.000000000000e+000
          1.050000000000e+000 9.999999999968e-002 0.000000000000e+000
          7.105553383353e-002 7.340627629639e-002 0.000000000000e+000
          2.332079639436e+000 1.297502941896e-001 0.000000000000e+000
          2.339336915611e+000 6.361441277535e-002 0.000000000000e+000
          6.280804554225e-002 1.348088062797e-001 0.000000000000e+000
        </DataArray>
      </Points>
      <Cells>
        <DataArray type="Int32" Name="connectivity" format="ascii">
          40 41 73 
          23 24 65 
          17 18 72 
          42 43 71 
          44 45 69 
          21 22 68 
          19 20 70 
          46 47 67 
          48 49 66 
          15 16 64 
          40 73 62 
          17 72 61 
          42 71 60 
          19 70 59 
          44 69 58 
          21 68 57 
          46 67 56 
          23 65 55 
          48 66 54 
          18 59 72 
          41 60 73 
          24 52 65 
          43 58 71 
          22 55 68 
          45 56 69 
          47 54 67 
          20 57 70 
          49 53 66 
          16 61 64 
          15 64 62 
          29 52 63 
          25 63 52 
          28 29 63 
          25 26 63 
          39 40 62 
          16 17 61 
          41 42 60 
          18 19 59 
          43 44 58 
          20 21 57 
          45 46 56 
          22 23 55 
          47 48 54 
          24 25 52 
          29 30 52 
          49 50 53 
          4 5 53 
          6 7 54 
          31 32 55 
          8 9 56 
          33 34 57 
          10 11 58 
          35 36 59 
          12 13 60 
          37 38 61 
          14 15 62 
          39 62 64 
          38 64 61 
          30 65 52 
          5 66 53 
          6 54 66 
          7 67 54 
          31 55 65 
          32 68 55 
          8 56 67 
          9 69 56 
          33 57 68 
          34 70 57 
          10 58 69 
          11 71 58 
          35 59 70 
          36 72 59 
          12 60 71 
          13 73 60 
          37 61 72 
          14 62 73 
          38 39 64 
          5 6 66 
          30 31 65 
          7 8 67 
          32 33 68 
          9 10 69 
          34 35 70 
          11 12 71 
          36 37 72 
          13 14 73 
          50 77 53 
          0 74 51 
          0 4 74 
          4 53 74 
          26 76 63 
          2 75 27 
          2 28 75 
          28 63 75 
          53 77 74 
          1 76 26 
          1 27 76 
          3 77 50 
          3 51 77 
          63 76 75 
          51 74 77 
          27 75 76 
        </DataArray>
        <DataArray type="Int32" Name="offsets" format="ascii">
          3 6 9 12 15 18 21 24 27 30 33 36 39 42 45 48 51 54 57 60 63 66 69 72 75 78 81 84 87 90 93 96 99 102 105 108 111 114 117 120 123 126 129 132 135 138 141 144 147 150 153 156 159 162 165 168 171 174 177 180 183 186 189 192 195 198 201 204 207 210 213 216 219 222 225 228 231 234 237 240 243 246 249 252 255 258 261 264 267 270 273 276 279 282 285 288 291 294 297 300 303 306 
        </DataArray>
        <DataArray type="UInt8" Name="types" format="ascii">
          5 5 5 5 5 5 5 5 5 5 5 5 5 5 5 5 5 5 5 5 5 5 5 5 5 5 5 5 5 5 5 5 5 5 5 5 5 5 5 5 5 5 5 5 5 5 5 5 5 5 5 5 5 5 5 5 5 5 5 5 5 5 5 5 5 5 5 5 5 5 5 5 5 5 5 5 5 5 5 5 5 5 5 5 5 5 5 5 5 5 5 5 5 5 5 5 5 5 5 5 5 5 
        </DataArray>
      </Cells>
      <PointData Scalars="CAPILLARY_PRESSURE">
        <DataArray type="Float64" Name="CAPILLARY_PRESSURE" format="ascii">
          1.527801406200e+005 1.527992362076e+005 1.527992714563e+005 1.527801406200e+005 1.527801702239e+005 1.527801835967e+005 1.527801600126e+005 1.527800740661e+005 1.527799099176e+005 1.527796927197e+005 1.527795351035e+005 1.527796714046e+005 1.527804123478e+005 1.527819235177e+005 1.527837921626e+005 1.527846248647e+005 1.527824193806e+005 1.527765920769e+005 1.527707024766e+005 1.527704536673e+005 1.527736165433e+005 1.527725159784e+005 1.527748169424e+005 1.527793769491e+005 1.527821877846e+005 1.527874911110e+005 1.527936549398e+005 1.528007772939e+005 1.527935224446e+005 1.527876054098e+005 1.527821794450e+005 1.527792973230e+005 1.527748391121e+005 1.527725300337e+005 1.527736145669e+005 1.527704522075e+005 1.527707023190e+005 1.527765921004e+005 1.527824193936e+005 1.527846248681e+005 1.527837921632e+005 1.527819235177e+005 1.527804123478e+005 1.527796714046e+005 1.527795351035e+005 1.527796927197e+005 1.527799099175e+005 1.527800740656e+005 1.527801600100e+005 1.527801835872e+005 1.527801702126e+005 1.527801406200e+005 1.527856686855e+005 1.527801791210e+005 1.527801263568e+005 1.527777851223e+005 1.527798035382e+005 1.527735243080e+005 1.527795473848e+005 1.527696979584e+005 1.527810778134e+005 1.527798525612e+005 1.527844632384e+005 1.527905887146e+005 1.527840078211e+005 1.527799499819e+005 1.527801784149e+005 1.527800016606e+005 1.527725798579e+005 1.527795947532e+005 1.527722386048e+005 1.527799483596e+005 1.527732577604e+005 1.527828752896e+005 1.527801623165e+005 1.527947101746e+005 1.527950296090e+005 1.527801600519e+005 
        </DataArray>
        <DataArray type="Float64" Name="GAS_PRESSURE" format="ascii">
          1.013250000000e+005 1.013726582392e+005 1.013727258470e+005 1.013250000000e+005 1.013249944156e+005 1.013249512460e+005 1.013248423863e+005 1.013246646303e+005 1.013244751703e+005 1.013244317211e+005 1.013248055796e+005 1.013258956793e+005 1.013277550290e+005 1.013297210923e+005 1.013300282406e+005 1.013262664114e+005 1.013176226236e+005 1.013083026829e+005 1.013072017195e+005 1.013169792165e+005 1.013240718750e+005 1.013249469664e+005 1.013365602258e+005 1.013430979714e+005 1.013510505172e+005 1.013581021539e+005 1.013677721362e+005 1.013759393635e+005 1.013676994338e+005 1.013581165467e+005 1.013512585933e+005 1.013429518388e+005 1.013365346765e+005 1.013249765022e+005 1.013240769766e+005 1.013169773997e+005 1.013072010927e+005 1.013083026118e+005 1.013176226267e+005 1.013262664157e+005 1.013300282420e+005 1.013297210926e+005 1.013277550290e+005 1.013258956793e+005 1.013248055796e+005 1.013244317210e+005 1.013244751700e+005 1.013246646289e+005 1.013248423804e+005 1.013249512228e+005 1.013249943848e+005 1.013250000000e+005 1.013565430700e+005 1.013249825356e+005 1.013247604795e+005 1.013413726741e+005 1.013244206023e+005 1.013240400373e+005 1.013252472436e+005 1.013112640340e+005 1.013288078949e+005 1.013125341935e+005 1.013287845904e+005 1.013629450950e+005 1.013224436727e+005 1.013455632318e+005 1.013249076585e+005 1.013245642867e+005 1.013295894455e+005 1.013245463518e+005 1.013218949367e+005 1.013267475988e+005 1.013062083510e+005 1.013302334699e+005 1.013249977227e+005 1.013671054689e+005 1.013675787334e+005 1.013249986256e+005 
        </DataArray>
        <DataArray type="Float64" Name="TEMPERATURE" format="ascii">
          3.431500000000e+002 3.434526349402e+002 3.434204030731e+002 3.431500000000e+002 3.431499999948e+002 3.431499999956e+002 3.431500000082e+002 3.431500000378e+002 3.431500000830e+002 3.431500001272e+002 3.431500001287e+002 3.431500000208e+002 3.431499997409e+002 3.431499993079e+002 3.431499989327e+002 3.431499990599e+002 3.431500001292e+002 3.431500019276e+002 3.431500030817e+002 3.431500027464e+002 3.431499997618e+002 3.431500040393e+002 3.431500294516e+002 3.431496592310e+002 3.431519243193e+002 3.431449103603e+002 3.431309737590e+002 3.436170949639e+002 3.431340303481e+002 3.431443596764e+002 3.431519850553e+002 3.431496505596e+002 3.431500308353e+002 3.431500038141e+002 3.431499997968e+002 3.431500027412e+002 3.431500030827e+002 3.431500019275e+002 3.431500001292e+002 3.431499990599e+002 3.431499989327e+002 3.431499993079e+002 3.431499997409e+002 3.431500000208e+002 3.431500001287e+002 3.431500001272e+002 3.431500000830e+002 3.431500000378e+002 3.431500000082e+002 3.431499999956e+002 3.431499999949e+002 3.431500000000e+002 3.431465464738e+002 3.431499999941e+002 3.431500000208e+002 3.431500981214e+002 3.431500001072e+002 3.431500050318e+002 3.431500000930e+002 3.431500029424e+002 3.431499995361e+002 3.431500009916e+002 3.431499989003e+002 3.431775167072e+002 3.431499994655e+002 3.431500172397e+002 3.431499999999e+002 3.431500000591e+002 3.431499751663e+002 3.431500001370e+002 3.431500015314e+002 3.431499999043e+002 3.431500027329e+002 3.431499990899e+002 3.431499999961e+002 3.430288088505e+002 3.430322046207e+002 3.431499999964e+002 
        </DataArray>
      </PointData>
      <CellData>
        <DataArray type="Float64" Name="Saturation" format="ascii">
          1.275180986471e-001 1.275023514671e-001 1.274556983708e-001 1.274990520809e-001 1.274963603395e-001 1.274542750245e-001 1.274462535108e-001 1.274989486705e-001 1.275001423173e-001 1.275235752786e-001 1.275237502468e-001 1.274760631717e-001 1.275021819234e-001 1.274375315323e-001 1.274960369047e-001 1.274513979866e-001 1.274983466311e-001 1.274925536316e-001 1.275000149556e-001 1.274403537752e-001 1.275120583475e-001 1.275163527711e-001 1.274971271652e-001 1.274660024015e-001 1.274969577252e-001 1.274994303401e-001 1.274530880086e-001 1.275001848473e-001 1.275129554359e-001 1.275281233875e-001 1.275520813380e-001 1.275518270136e-001 1.275695560953e-001 1.275695965735e-001 1.275276435042e-001 1.274964524739e-001 1.275065774203e-001 1.274341123722e-001 1.274962074882e-001 1.274537053684e-001 1.274976591036e-001 1.274811299760e-001 1.274997827344e-001 1.275331337404e-001 1.275333695178e-001 1.275001665935e-001 1.275001666399e-001 1.274997827413e-001 1.274810021067e-001 1.274976591039e-001 1.274537322530e-001 1.274962074882e-001 1.274341087721e-001 1.275065774201e-001 1.274964525552e-001 1.275276434952e-001 1.275281233952e-001 1.275129554648e-001 1.275163342129e-001 1.275001848684e-001 1.275000149614e-001 1.274994303412e-001 1.274923764264e-001 1.274660517435e-001 1.274983466313e-001 1.274969577253e-001 1.274514292702e-001 1.274530836098e-001 1.274960369047e-001 1.274971271652e-001 1.274375282830e-001 1.274403534243e-001 1.275021819234e-001 1.275120583473e-001 1.274760632241e-001 1.275237502454e-001 1.275235753151e-001 1.275001423441e-001 1.275021557070e-001 1.274989486719e-001 1.274543556512e-001 1.274963603395e-001 1.274462458627e-001 1.274990520809e-001 1.274556980724e-001 1.275180986456e-001 1.275001142176e-001 1.274999677205e-001 1.275000336017e-001 1.275001192826e-001 1.275863690969e-001 1.276208206445e-001 1.276046809202e-001 1.275853636250e-001 1.275000966456e-001 1.276056079316e-001 1.276214528641e-001 1.275000285366e-001 1.274999626808e-001 1.275887168223e-001 1.275000109646e-001 1.276113839579e-001 
        </DataArray>
        <DataArray type="Int32" Name="MatGroup" format="ascii">
          0 0 0 0 0 0 0 0 0 0 0 0 0 0 0 0 0 0 0 0 0 0 0 0 0 0 0 0 0 0 0 0 0 0 0 0 0 0 0 0 0 0 0 0 0 0 0 0 0 0 0 0 0 0 0 0 0 0 0 0 0 0 0 0 0 0 0 0 0 0 0 0 0 0 0 0 0 0 0 0 0 0 0 0 0 0 0 0 0 0 0 0 0 0 0 0 0 0 0 0 0 0 
        </DataArray>
      </CellData>
    </Piece>
  </UnstructuredGrid>
</VTKFile>
