<?xml version="1.0"?>
<VTKFile type="UnstructuredGrid" version="0.1" byte_order="LittleEndian">
  <UnstructuredGrid>
    <Piece NumberOfPoints="78" NumberOfCells="102">
      <Points>
        <DataArray type="Float64" NumberOfComponents="3" format="ascii">
          0.000000000000e+000 0.000000000000e+000 0.000000000000e+000
          2.400000000000e+000 0.000000000000e+000 0.000000000000e+000
          2.400000000000e+000 2.000000000000e-001 0.000000000000e+000
          0.000000000000e+000 2.000000000000e-001 0.000000000000e+000
          9.999999999980e-002 0.000000000000e+000 0.000000000000e+000
          1.999999999996e-001 0.000000000000e+000 0.000000000000e+000
          2.999999999995e-001 0.000000000000e+000 0.000000000000e+000
          3.999999999992e-001 0.000000000000e+000 0.000000000000e+000
          4.999999999989e-001 0.000000000000e+000 0.000000000000e+000
          5.999999999986e-001 0.000000000000e+000 0.000000000000e+000
          6.999999999983e-001 0.000000000000e+000 0.000000000000e+000
          7.999999999980e-001 0.000000000000e+000 0.000000000000e+000
          8.999999999978e-001 0.000000000000e+000 0.000000000000e+000
          9.999999999975e-001 0.000000000000e+000 0.000000000000e+000
          1.099999999997e+000 0.000000000000e+000 0.000000000000e+000
          1.199999999997e+000 0.000000000000e+000 0.000000000000e+000
          1.299999999997e+000 0.000000000000e+000 0.000000000000e+000
          1.399999999997e+000 0.000000000000e+000 0.000000000000e+000
          1.499999999998e+000 0.000000000000e+000 0.000000000000e+000
          1.599999999998e+000 0.000000000000e+000 0.000000000000e+000
          1.699999999998e+000 0.000000000000e+000 0.000000000000e+000
          1.799999999998e+000 0.000000000000e+000 0.000000000000e+000
          1.899999999999e+000 0.000000000000e+000 0.000000000000e+000
          1.999999999999e+000 0.000000000000e+000 0.000000000000e+000
          2.099999999999e+000 0.000000000000e+000 0.000000000000e+000
          2.199999999999e+000 0.000000000000e+000 0.000000000000e+000
          2.300000000000e+000 0.000000000000e+000 0.000000000000e+000
          2.400000000000e+000 9.999999999974e-002 0.000000000000e+000
          2.300000000000e+000 2.000000000000e-001 0.000000000000e+000
          2.200000000000e+000 2.000000000000e-001 0.000000000000e+000
          2.100000000000e+000 2.000000000000e-001 0.000000000000e+000
          2.000000000001e+000 2.000000000000e-001 0.000000000000e+000
          1.900000000001e+000 2.000000000000e-001 0.000000000000e+000
          1.800000000001e+000 2.000000000000e-001 0.000000000000e+000
          1.700000000002e+000 2.000000000000e-001 0.000000000000e+000
          1.600000000002e+000 2.000000000000e-001 0.000000000000e+000
          1.500000000002e+000 2.000000000000e-001 0.000000000000e+000
          1.400000000003e+000 2.000000000000e-001 0.000000000000e+000
          1.300000000003e+000 2.000000000000e-001 0.000000000000e+000
          1.200000000003e+000 2.000000000000e-001 0.000000000000e+000
          1.100000000003e+000 2.000000000000e-001 0.000000000000e+000
          1.000000000003e+000 2.000000000000e-001 0.000000000000e+000
          9.000000000023e-001 2.000000000000e-001 0.000000000000e+000
          8.000000000020e-001 2.000000000000e-001 0.000000000000e+000
          7.000000000018e-001 2.000000000000e-001 0.000000000000e+000
          6.000000000015e-001 2.000000000000e-001 0.000000000000e+000
          5.000000000013e-001 2.000000000000e-001 0.000000000000e+000
          4.000000000010e-001 2.000000000000e-001 0.000000000000e+000
          3.000000000008e-001 2.000000000000e-001 0.000000000000e+000
          2.000000000005e-001 2.000000000000e-001 0.000000000000e+000
          1.000000000003e-001 2.000000000000e-001 0.000000000000e+000
          0.000000000000e+000 1.000000000003e-001 0.000000000000e+000
          2.151388888889e+000 1.020833333334e-001 0.000000000000e+000
          1.429846938774e-001 1.006377551020e-001 0.000000000000e+000
          3.499999999993e-001 9.999999999967e-002 0.000000000000e+000
          1.950000000001e+000 1.000000000005e-001 0.000000000000e+000
          5.499999999988e-001 9.999999999941e-002 0.000000000000e+000
          1.750000000002e+000 1.000000000007e-001 0.000000000000e+000
          7.499999999982e-001 9.999999999914e-002 0.000000000000e+000
          1.550000000002e+000 1.000000000010e-001 0.000000000000e+000
          9.499999999976e-001 9.999999999887e-002 0.000000000000e+000
          1.350000000003e+000 1.000000000013e-001 0.000000000000e+000
          1.150000000000e+000 9.999999999919e-002 0.000000000000e+000
          2.260292658730e+000 9.853670634922e-002 0.000000000000e+000
          1.250000000000e+000 1.000000000001e-001 0.000000000000e+000
          2.050231481482e+000 1.003472222223e-001 0.000000000000e+000
          2.488307823129e-001 1.001062925169e-001 0.000000000000e+000
          4.499999999997e-001 9.999999999985e-002 0.000000000000e+000
          1.850000000000e+000 1.000000000002e-001 0.000000000000e+000
          6.499999999995e-001 9.999999999976e-002 0.000000000000e+000
          1.650000000001e+000 1.000000000003e-001 0.000000000000e+000
          8.499999999993e-001 9.999999999967e-002 0.000000000000e+000
          1.450000000001e+000 1.000000000004e-001 0.000000000000e+000
          1.050000000000e+000 9.999999999968e-002 0.000000000000e+000
          7.105553383353e-002 7.340627629639e-002 0.000000000000e+000
          2.332079639436e+000 1.297502941896e-001 0.000000000000e+000
          2.339336915611e+000 6.361441277535e-002 0.000000000000e+000
          6.280804554225e-002 1.348088062797e-001 0.000000000000e+000
        </DataArray>
      </Points>
      <Cells>
        <DataArray type="Int32" Name="connectivity" format="ascii">
          40 41 73 
          23 24 65 
          17 18 72 
          42 43 71 
          44 45 69 
          21 22 68 
          19 20 70 
          46 47 67 
          48 49 66 
          15 16 64 
          40 73 62 
          17 72 61 
          42 71 60 
          19 70 59 
          44 69 58 
          21 68 57 
          46 67 56 
          23 65 55 
          48 66 54 
          18 59 72 
          41 60 73 
          24 52 65 
          43 58 71 
          22 55 68 
          45 56 69 
          47 54 67 
          20 57 70 
          49 53 66 
          16 61 64 
          15 64 62 
          29 52 63 
          25 63 52 
          28 29 63 
          25 26 63 
          39 40 62 
          16 17 61 
          41 42 60 
          18 19 59 
          43 44 58 
          20 21 57 
          45 46 56 
          22 23 55 
          47 48 54 
          24 25 52 
          29 30 52 
          49 50 53 
          4 5 53 
          6 7 54 
          31 32 55 
          8 9 56 
          33 34 57 
          10 11 58 
          35 36 59 
          12 13 60 
          37 38 61 
          14 15 62 
          39 62 64 
          38 64 61 
          30 65 52 
          5 66 53 
          6 54 66 
          7 67 54 
          31 55 65 
          32 68 55 
          8 56 67 
          9 69 56 
          33 57 68 
          34 70 57 
          10 58 69 
          11 71 58 
          35 59 70 
          36 72 59 
          12 60 71 
          13 73 60 
          37 61 72 
          14 62 73 
          38 39 64 
          5 6 66 
          30 31 65 
          7 8 67 
          32 33 68 
          9 10 69 
          34 35 70 
          11 12 71 
          36 37 72 
          13 14 73 
          50 77 53 
          0 74 51 
          0 4 74 
          4 53 74 
          26 76 63 
          2 75 27 
          2 28 75 
          28 63 75 
          53 77 74 
          1 76 26 
          1 27 76 
          3 77 50 
          3 51 77 
          63 76 75 
          51 74 77 
          27 75 76 
        </DataArray>
        <DataArray type="Int32" Name="offsets" format="ascii">
          3 6 9 12 15 18 21 24 27 30 33 36 39 42 45 48 51 54 57 60 63 66 69 72 75 78 81 84 87 90 93 96 99 102 105 108 111 114 117 120 123 126 129 132 135 138 141 144 147 150 153 156 159 162 165 168 171 174 177 180 183 186 189 192 195 198 201 204 207 210 213 216 219 222 225 228 231 234 237 240 243 246 249 252 255 258 261 264 267 270 273 276 279 282 285 288 291 294 297 300 303 306 
        </DataArray>
        <DataArray type="UInt8" Name="types" format="ascii">
          5 5 5 5 5 5 5 5 5 5 5 5 5 5 5 5 5 5 5 5 5 5 5 5 5 5 5 5 5 5 5 5 5 5 5 5 5 5 5 5 5 5 5 5 5 5 5 5 5 5 5 5 5 5 5 5 5 5 5 5 5 5 5 5 5 5 5 5 5 5 5 5 5 5 5 5 5 5 5 5 5 5 5 5 5 5 5 5 5 5 5 5 5 5 5 5 5 5 5 5 5 5 
        </DataArray>
      </Cells>
      <PointData Scalars="CAPILLARY_PRESSURE">
        <DataArray type="Float64" Name="CAPILLARY_PRESSURE" format="ascii">
          1.527801406200e+005 1.526543280742e+005 1.526543839217e+005 1.527801406200e+005 1.528366558579e+005 1.528879709821e+005 1.529320614493e+005 1.529692120464e+005 1.530017681536e+005 1.530323062818e+005 1.530614186568e+005 1.530864627589e+005 1.531025249072e+005 1.531054934782e+005 1.530949822029e+005 1.530738319227e+005 1.530436530313e+005 1.530019810013e+005 1.529480552507e+005 1.528903444736e+005 1.528357611213e+005 1.527791238377e+005 1.527280921009e+005 1.526871840314e+005 1.526532457674e+005 1.526336930432e+005 1.526306572709e+005 1.526584677791e+005 1.526305353653e+005 1.526338025297e+005 1.526531824974e+005 1.526871054666e+005 1.527281314214e+005 1.527791388580e+005 1.528357560703e+005 1.528903420149e+005 1.529480550794e+005 1.530019811021e+005 1.530436530757e+005 1.530738319339e+005 1.530949822047e+005 1.531054934783e+005 1.531025249070e+005 1.530864627582e+005 1.530614186541e+005 1.530323062715e+005 1.530017681135e+005 1.529692118917e+005 1.529320608553e+005 1.528879687630e+005 1.528366546991e+005 1.527801406200e+005 1.526421151489e+005 1.528595283733e+005 1.529513925427e+005 1.527071807705e+005 1.530171828480e+005 1.528077916209e+005 1.530747320017e+005 1.529189251630e+005 1.531057750544e+005 1.530244703630e+005 1.530855442347e+005 1.526289146637e+005 1.530599475502e+005 1.526681069448e+005 1.529104680947e+005 1.529858822417e+005 1.527518967732e+005 1.530471286189e+005 1.528628774064e+005 1.530959356874e+005 1.529762361502e+005 1.531017814841e+005 1.528205980215e+005 1.526349779723e+005 1.526362066088e+005 1.528160069436e+005 
        </DataArray>
        <DataArray type="Float64" Name="GAS_PRESSURE" format="ascii">
          1.013250000000e+005 1.015798149394e+005 1.015799875838e+005 1.013250000000e+005 1.013878618164e+005 1.014475198965e+005 1.015039525082e+005 1.015599213267e+005 1.016196738770e+005 1.016857093483e+005 1.017560948782e+005 1.018246581776e+005 1.018845833965e+005 1.019327128133e+005 1.019698707222e+005 1.019953081541e+005 1.020013234467e+005 1.019790258965e+005 1.019335973153e+005 1.018818891799e+005 1.018232422779e+005 1.017520556096e+005 1.016918079224e+005 1.016363791397e+005 1.015925020848e+005 1.015643784470e+005 1.015589591784e+005 1.015861769673e+005 1.015589010671e+005 1.015644436237e+005 1.015926446167e+005 1.016361831797e+005 1.016918030938e+005 1.017520988408e+005 1.018232460342e+005 1.018818850881e+005 1.019335960805e+005 1.019790257915e+005 1.020013234804e+005 1.019953081734e+005 1.019698707279e+005 1.019327128145e+005 1.018845833964e+005 1.018246581765e+005 1.017560948744e+005 1.016857093351e+005 1.016196738326e+005 1.015599211819e+005 1.015039520557e+005 1.014475183337e+005 1.013878609795e+005 1.013250000000e+005 1.015776476886e+005 1.014139619139e+005 1.015317297259e+005 1.016644825524e+005 1.016519069986e+005 1.017880405366e+005 1.017910732470e+005 1.019078657930e+005 1.019101233870e+005 1.019938684589e+005 1.019843635015e+005 1.015571715993e+005 1.020014455169e+005 1.016110369079e+005 1.014753773658e+005 1.015890869242e+005 1.017197679206e+005 1.017206732186e+005 1.018544183732e+005 1.018560179037e+005 1.019581261670e+005 1.019525817744e+005 1.013698697388e+005 1.015605831509e+005 1.015617564682e+005 1.013647311834e+005 
        </DataArray>
        <DataArray type="Float64" Name="TEMPERATURE" format="ascii">
          3.431500000000e+002 3.543672903791e+002 3.543699117670e+002 3.431500000000e+002 3.431499858318e+002 3.431499710620e+002 3.431499574233e+002 3.431499449204e+002 3.431499330458e+002 3.431499213133e+002 3.431499098517e+002 3.431498996364e+002 3.431498920894e+002 3.431498881901e+002 3.431498878831e+002 3.431498906037e+002 3.431498965378e+002 3.431499070788e+002 3.431499209053e+002 3.431499317075e+002 3.431499991785e+002 3.431499041069e+002 3.431476674256e+002 3.431576199121e+002 3.433428622234e+002 3.443427872368e+002 3.474805349777e+002 3.546006824761e+002 3.474831969857e+002 3.443420665899e+002 3.433422812448e+002 3.431575018346e+002 3.431476514964e+002 3.431499046477e+002 3.431499994570e+002 3.431499317437e+002 3.431499208976e+002 3.431499070785e+002 3.431498965380e+002 3.431498906038e+002 3.431498878832e+002 3.431498881902e+002 3.431498920894e+002 3.431498996364e+002 3.431499098518e+002 3.431499213134e+002 3.431499330458e+002 3.431499449205e+002 3.431499574236e+002 3.431499710628e+002 3.431499858381e+002 3.431500000000e+002 3.436807147247e+002 3.431499793524e+002 3.431499510535e+002 3.431473077650e+002 3.431499271735e+002 3.431500490020e+002 3.431499045005e+002 3.431499261414e+002 3.431498896627e+002 3.431499011368e+002 3.431498888839e+002 3.458804191416e+002 3.431498931039e+002 3.432043648273e+002 3.431499642437e+002 3.431499389432e+002 3.431491643637e+002 3.431499155063e+002 3.431499499258e+002 3.431498954467e+002 3.431499140701e+002 3.431498876256e+002 3.431499902119e+002 3.493262610587e+002 3.497798472638e+002 3.431499914100e+002 
        </DataArray>
      </PointData>
      <CellData>
        <DataArray type="Float64" Name="Saturation" format="ascii">
          1.296336881450e-001 1.267605293408e-001 1.288011798715e-001 1.295953523859e-001 1.292765588380e-001 1.273189171039e-001 1.280526147283e-001 1.288689930105e-001 1.283668900042e-001 1.293575275554e-001 1.295895677278e-001 1.289705444735e-001 1.296380635029e-001 1.282373382271e-001 1.293704682145e-001 1.274963287836e-001 1.289753025272e-001 1.268807962628e-001 1.285076463668e-001 1.286170016431e-001 1.296575556085e-001 1.266600004035e-001 1.295338761865e-001 1.271586922137e-001 1.291786152395e-001 1.287573185605e-001 1.278691487898e-001 1.282058461548e-001 1.292482583898e-001 1.294502322262e-001 1.265291654829e-001 1.265289211320e-001 1.265033214233e-001 1.265033491460e-001 1.295277439748e-001 1.291198956076e-001 1.296591995638e-001 1.284264305823e-001 1.294575112513e-001 1.276829127554e-001 1.290781520506e-001 1.270145049479e-001 1.286379645124e-001 1.265832178864e-001 1.265833210332e-001 1.280418815711e-001 1.280418890760e-001 1.286379661730e-001 1.270144174617e-001 1.290781521624e-001 1.276829349355e-001 1.294575112588e-001 1.284264247449e-001 1.296591995643e-001 1.291198959291e-001 1.295277439460e-001 1.294502322510e-001 1.292482584880e-001 1.266598592523e-001 1.282058510830e-001 1.285076476848e-001 1.287573189035e-001 1.268806211043e-001 1.271587798066e-001 1.289753026161e-001 1.291786152623e-001 1.274963622104e-001 1.278691375616e-001 1.293704682204e-001 1.295338761881e-001 1.282373327674e-001 1.286170012632e-001 1.296380635035e-001 1.296575556083e-001 1.289705446969e-001 1.295895677237e-001 1.293575276783e-001 1.283668962490e-001 1.267602130159e-001 1.288689934423e-001 1.273190381056e-001 1.292765588668e-001 1.280525980426e-001 1.295953523881e-001 1.288011797153e-001 1.296336881409e-001 1.278819558640e-001 1.275899362888e-001 1.277156466077e-001 1.278921648816e-001 1.265089591491e-001 1.266251112026e-001 1.265627840903e-001 1.265059448985e-001 1.278462602055e-001 1.265656733464e-001 1.266277280495e-001 1.277054336117e-001 1.275797230370e-001 1.265186024204e-001 1.276697240430e-001 1.265845523073e-001 
        </DataArray>
        <DataArray type="Int32" Name="MatGroup" format="ascii">
          0 0 0 0 0 0 0 0 0 0 0 0 0 0 0 0 0 0 0 0 0 0 0 0 0 0 0 0 0 0 0 0 0 0 0 0 0 0 0 0 0 0 0 0 0 0 0 0 0 0 0 0 0 0 0 0 0 0 0 0 0 0 0 0 0 0 0 0 0 0 0 0 0 0 0 0 0 0 0 0 0 0 0 0 0 0 0 0 0 0 0 0 0 0 0 0 0 0 0 0 0 0 
        </DataArray>
      </CellData>
    </Piece>
  </UnstructuredGrid>
</VTKFile>
