<?xml version="1.0"?>
<VTKFile type="UnstructuredGrid" version="0.1" byte_order="LittleEndian">
  <UnstructuredGrid>
    <Piece NumberOfPoints="78" NumberOfCells="102">
      <Points>
        <DataArray type="Float64" NumberOfComponents="3" format="ascii">
          0.000000000000e+000 0.000000000000e+000 0.000000000000e+000
          2.400000000000e+000 0.000000000000e+000 0.000000000000e+000
          2.400000000000e+000 2.000000000000e-001 0.000000000000e+000
          0.000000000000e+000 2.000000000000e-001 0.000000000000e+000
          9.999999999980e-002 0.000000000000e+000 0.000000000000e+000
          1.999999999996e-001 0.000000000000e+000 0.000000000000e+000
          2.999999999995e-001 0.000000000000e+000 0.000000000000e+000
          3.999999999992e-001 0.000000000000e+000 0.000000000000e+000
          4.999999999989e-001 0.000000000000e+000 0.000000000000e+000
          5.999999999986e-001 0.000000000000e+000 0.000000000000e+000
          6.999999999983e-001 0.000000000000e+000 0.000000000000e+000
          7.999999999980e-001 0.000000000000e+000 0.000000000000e+000
          8.999999999978e-001 0.000000000000e+000 0.000000000000e+000
          9.999999999975e-001 0.000000000000e+000 0.000000000000e+000
          1.099999999997e+000 0.000000000000e+000 0.000000000000e+000
          1.199999999997e+000 0.000000000000e+000 0.000000000000e+000
          1.299999999997e+000 0.000000000000e+000 0.000000000000e+000
          1.399999999997e+000 0.000000000000e+000 0.000000000000e+000
          1.499999999998e+000 0.000000000000e+000 0.000000000000e+000
          1.599999999998e+000 0.000000000000e+000 0.000000000000e+000
          1.699999999998e+000 0.000000000000e+000 0.000000000000e+000
          1.799999999998e+000 0.000000000000e+000 0.000000000000e+000
          1.899999999999e+000 0.000000000000e+000 0.000000000000e+000
          1.999999999999e+000 0.000000000000e+000 0.000000000000e+000
          2.099999999999e+000 0.000000000000e+000 0.000000000000e+000
          2.199999999999e+000 0.000000000000e+000 0.000000000000e+000
          2.300000000000e+000 0.000000000000e+000 0.000000000000e+000
          2.400000000000e+000 9.999999999974e-002 0.000000000000e+000
          2.300000000000e+000 2.000000000000e-001 0.000000000000e+000
          2.200000000000e+000 2.000000000000e-001 0.000000000000e+000
          2.100000000000e+000 2.000000000000e-001 0.000000000000e+000
          2.000000000001e+000 2.000000000000e-001 0.000000000000e+000
          1.900000000001e+000 2.000000000000e-001 0.000000000000e+000
          1.800000000001e+000 2.000000000000e-001 0.000000000000e+000
          1.700000000002e+000 2.000000000000e-001 0.000000000000e+000
          1.600000000002e+000 2.000000000000e-001 0.000000000000e+000
          1.500000000002e+000 2.000000000000e-001 0.000000000000e+000
          1.400000000003e+000 2.000000000000e-001 0.000000000000e+000
          1.300000000003e+000 2.000000000000e-001 0.000000000000e+000
          1.200000000003e+000 2.000000000000e-001 0.000000000000e+000
          1.100000000003e+000 2.000000000000e-001 0.000000000000e+000
          1.000000000003e+000 2.000000000000e-001 0.000000000000e+000
          9.000000000023e-001 2.000000000000e-001 0.000000000000e+000
          8.000000000020e-001 2.000000000000e-001 0.000000000000e+000
          7.000000000018e-001 2.000000000000e-001 0.000000000000e+000
          6.000000000015e-001 2.000000000000e-001 0.000000000000e+000
          5.000000000013e-001 2.000000000000e-001 0.000000000000e+000
          4.000000000010e-001 2.000000000000e-001 0.000000000000e+000
          3.000000000008e-001 2.000000000000e-001 0.000000000000e+000
          2.000000000005e-001 2.000000000000e-001 0.000000000000e+000
          1.000000000003e-001 2.000000000000e-001 0.000000000000e+000
          0.000000000000e+000 1.000000000003e-001 0.000000000000e+000
          2.151388888889e+000 1.020833333334e-001 0.000000000000e+000
          1.429846938774e-001 1.006377551020e-001 0.000000000000e+000
          3.499999999993e-001 9.999999999967e-002 0.000000000000e+000
          1.950000000001e+000 1.000000000005e-001 0.000000000000e+000
          5.499999999988e-001 9.999999999941e-002 0.000000000000e+000
          1.750000000002e+000 1.000000000007e-001 0.000000000000e+000
          7.499999999982e-001 9.999999999914e-002 0.000000000000e+000
          1.550000000002e+000 1.000000000010e-001 0.000000000000e+000
          9.499999999976e-001 9.999999999887e-002 0.000000000000e+000
          1.350000000003e+000 1.000000000013e-001 0.000000000000e+000
          1.150000000000e+000 9.999999999919e-002 0.000000000000e+000
          2.260292658730e+000 9.853670634922e-002 0.000000000000e+000
          1.250000000000e+000 1.000000000001e-001 0.000000000000e+000
          2.050231481482e+000 1.003472222223e-001 0.000000000000e+000
          2.488307823129e-001 1.001062925169e-001 0.000000000000e+000
          4.499999999997e-001 9.999999999985e-002 0.000000000000e+000
          1.850000000000e+000 1.000000000002e-001 0.000000000000e+000
          6.499999999995e-001 9.999999999976e-002 0.000000000000e+000
          1.650000000001e+000 1.000000000003e-001 0.000000000000e+000
          8.499999999993e-001 9.999999999967e-002 0.000000000000e+000
          1.450000000001e+000 1.000000000004e-001 0.000000000000e+000
          1.050000000000e+000 9.999999999968e-002 0.000000000000e+000
          7.105553383353e-002 7.340627629639e-002 0.000000000000e+000
          2.332079639436e+000 1.297502941896e-001 0.000000000000e+000
          2.339336915611e+000 6.361441277535e-002 0.000000000000e+000
          6.280804554225e-002 1.348088062797e-001 0.000000000000e+000
        </DataArray>
      </Points>
      <Cells>
        <DataArray type="Int32" Name="connectivity" format="ascii">
          40 41 73 
          23 24 65 
          17 18 72 
          42 43 71 
          44 45 69 
          21 22 68 
          19 20 70 
          46 47 67 
          48 49 66 
          15 16 64 
          40 73 62 
          17 72 61 
          42 71 60 
          19 70 59 
          44 69 58 
          21 68 57 
          46 67 56 
          23 65 55 
          48 66 54 
          18 59 72 
          41 60 73 
          24 52 65 
          43 58 71 
          22 55 68 
          45 56 69 
          47 54 67 
          20 57 70 
          49 53 66 
          16 61 64 
          15 64 62 
          29 52 63 
          25 63 52 
          28 29 63 
          25 26 63 
          39 40 62 
          16 17 61 
          41 42 60 
          18 19 59 
          43 44 58 
          20 21 57 
          45 46 56 
          22 23 55 
          47 48 54 
          24 25 52 
          29 30 52 
          49 50 53 
          4 5 53 
          6 7 54 
          31 32 55 
          8 9 56 
          33 34 57 
          10 11 58 
          35 36 59 
          12 13 60 
          37 38 61 
          14 15 62 
          39 62 64 
          38 64 61 
          30 65 52 
          5 66 53 
          6 54 66 
          7 67 54 
          31 55 65 
          32 68 55 
          8 56 67 
          9 69 56 
          33 57 68 
          34 70 57 
          10 58 69 
          11 71 58 
          35 59 70 
          36 72 59 
          12 60 71 
          13 73 60 
          37 61 72 
          14 62 73 
          38 39 64 
          5 6 66 
          30 31 65 
          7 8 67 
          32 33 68 
          9 10 69 
          34 35 70 
          11 12 71 
          36 37 72 
          13 14 73 
          50 77 53 
          0 74 51 
          0 4 74 
          4 53 74 
          26 76 63 
          2 75 27 
          2 28 75 
          28 63 75 
          53 77 74 
          1 76 26 
          1 27 76 
          3 77 50 
          3 51 77 
          63 76 75 
          51 74 77 
          27 75 76 
        </DataArray>
        <DataArray type="Int32" Name="offsets" format="ascii">
          3 6 9 12 15 18 21 24 27 30 33 36 39 42 45 48 51 54 57 60 63 66 69 72 75 78 81 84 87 90 93 96 99 102 105 108 111 114 117 120 123 126 129 132 135 138 141 144 147 150 153 156 159 162 165 168 171 174 177 180 183 186 189 192 195 198 201 204 207 210 213 216 219 222 225 228 231 234 237 240 243 246 249 252 255 258 261 264 267 270 273 276 279 282 285 288 291 294 297 300 303 306 
        </DataArray>
        <DataArray type="UInt8" Name="types" format="ascii">
          5 5 5 5 5 5 5 5 5 5 5 5 5 5 5 5 5 5 5 5 5 5 5 5 5 5 5 5 5 5 5 5 5 5 5 5 5 5 5 5 5 5 5 5 5 5 5 5 5 5 5 5 5 5 5 5 5 5 5 5 5 5 5 5 5 5 5 5 5 5 5 5 5 5 5 5 5 5 5 5 5 5 5 5 5 5 5 5 5 5 5 5 5 5 5 5 5 5 5 5 5 5 
        </DataArray>
      </Cells>
      <PointData Scalars="CAPILLARY_PRESSURE">
        <DataArray type="Float64" Name="CAPILLARY_PRESSURE" format="ascii">
          1.527801406200e+005 1.535963181955e+005 1.535929733391e+005 1.527801406200e+005 1.533647268494e+005 1.540447104180e+005 1.545784766809e+005 1.547677306398e+005 1.547102334887e+005 1.545584388767e+005 1.544129762502e+005 1.543202087570e+005 1.542815453398e+005 1.542365764423e+005 1.540819899515e+005 1.537461653802e+005 1.532505724766e+005 1.527089492332e+005 1.522358110060e+005 1.518793139786e+005 1.516945877331e+005 1.517416083633e+005 1.520485287043e+005 1.525134885114e+005 1.529444878568e+005 1.532788214380e+005 1.534719865485e+005 1.536054427410e+005 1.534720499862e+005 1.532792073173e+005 1.529444420259e+005 1.525136064027e+005 1.520486288813e+005 1.517415443676e+005 1.516945377880e+005 1.518793170520e+005 1.522358198993e+005 1.527089515150e+005 1.532505723580e+005 1.537461651575e+005 1.540819898813e+005 1.542365764365e+005 1.542815453786e+005 1.543202089679e+005 1.544129770404e+005 1.545584404805e+005 1.547102306275e+005 1.547676850070e+005 1.545782275138e+005 1.540439361486e+005 1.533641203463e+005 1.527801406200e+005 1.531307320207e+005 1.536490684287e+005 1.547139659850e+005 1.522751276153e+005 1.546383302581e+005 1.516864592235e+005 1.543587273688e+005 1.520405937713e+005 1.542660639871e+005 1.529768586699e+005 1.539379710641e+005 1.534149717180e+005 1.535127487865e+005 1.527407038214e+005 1.543464208498e+005 1.547595798015e+005 1.518638909985e+005 1.544809988332e+005 1.517609206543e+005 1.542962744272e+005 1.524597230143e+005 1.541791359061e+005 1.531970754934e+005 1.535037192534e+005 1.535120444599e+005 1.531472789749e+005 
        </DataArray>
        <DataArray type="Float64" Name="GAS_PRESSURE" format="ascii">
          1.013250000000e+005 1.013643878837e+005 1.013623099796e+005 1.013250000000e+005 1.001901845989e+005 9.931317030185e+004 9.880427272546e+004 9.835572212586e+004 9.791502954543e+004 9.762881392357e+004 9.764343950935e+004 9.802825774622e+004 9.875480876659e+004 9.969037022959e+004 1.006487435436e+005 1.015102690241e+005 1.022766553525e+005 1.029940504311e+005 1.036031801397e+005 1.038982740919e+005 1.036857689272e+005 1.029471007422e+005 1.020519803638e+005 1.014098783350e+005 1.011191242096e+005 1.011001628504e+005 1.011770182332e+005 1.013817149931e+005 1.011758614607e+005 1.011000011440e+005 1.011190444487e+005 1.014098857131e+005 1.020522566036e+005 1.029471008679e+005 1.036856610177e+005 1.038982446135e+005 1.036031880626e+005 1.029940564027e+005 1.022766566553e+005 1.015102690054e+005 1.006487434374e+005 9.969037020000e+004 9.875480880606e+004 9.802825784613e+004 9.764343912054e+004 9.762880861888e+004 9.791499834746e+004 9.835559927905e+004 9.880396322485e+004 9.931304945262e+004 1.001921470672e+005 1.013250000000e+005 1.010876873751e+005 9.975354887975e+004 9.858334298720e+004 1.016884023401e+005 9.774207888011e+004 1.033687638462e+005 9.778891871828e+004 1.038042862775e+005 9.920816639126e+004 1.026410117534e+005 1.010940218719e+005 1.011369882595e+005 1.019018670379e+005 1.012193810295e+005 9.903973017301e+004 9.812689350238e+004 1.024856158754e+005 9.759203722380e+004 1.038633087837e+005 9.835476404953e+004 1.033229927216e+005 1.001770607200e+005 1.005295481394e+005 1.012228993238e+005 1.012347842616e+005 1.006221674715e+005 
        </DataArray>
        <DataArray type="Float64" Name="TEMPERATURE" format="ascii">
          3.431500000000e+002 3.607505986211e+002 3.607452058217e+002 3.431500000000e+002 3.431500292100e+002 3.431498111809e+002 3.431494561184e+002 3.431490633881e+002 3.431487210115e+002 3.431485216172e+002 3.431485532653e+002 3.431487824189e+002 3.431490395026e+002 3.431491820487e+002 3.431491926085e+002 3.431491503161e+002 3.431491654231e+002 3.431493003074e+002 3.431496987312e+002 3.431518649327e+002 3.431639838319e+002 3.432180728048e+002 3.434101744496e+002 3.439643813619e+002 3.452949480655e+002 3.480338193097e+002 3.529820148700e+002 3.609321008189e+002 3.529794867225e+002 3.480333494813e+002 3.452943544920e+002 3.439642724101e+002 3.434101258351e+002 3.432180659166e+002 3.431639820860e+002 3.431518644806e+002 3.431496986353e+002 3.431493002895e+002 3.431491654202e+002 3.431491503157e+002 3.431491926085e+002 3.431491820489e+002 3.431490395027e+002 3.431487824188e+002 3.431485532647e+002 3.431485216168e+002 3.431487210153e+002 3.431490634179e+002 3.431494562116e+002 3.431498114263e+002 3.431500296868e+002 3.431500000000e+002 3.464731909431e+002 3.431499609976e+002 3.431492582877e+002 3.436205498791e+002 3.431485965939e+002 3.431819122392e+002 3.431486521064e+002 3.431503193024e+002 3.431491290992e+002 3.431492162981e+002 3.431491709519e+002 3.506812409880e+002 3.431491449866e+002 3.445006821428e+002 3.431496483305e+002 3.431488810663e+002 3.432868084809e+002 3.431485064757e+002 3.431555786384e+002 3.431489190256e+002 3.431494354585e+002 3.431492004809e+002 3.431500410990e+002 3.552548384125e+002 3.557756103853e+002 3.431500432159e+002 
        </DataArray>
      </PointData>
      <CellData>
        <DataArray type="Float64" Name="Saturation" format="ascii">
          1.366271838031e-001 1.271838297427e-001 1.254100482683e-001 1.374932057346e-001 1.386886676625e-001 1.214683230107e-001 1.207447259076e-001 1.403743811053e-001 1.376448453068e-001 1.322922907817e-001 1.359797022807e-001 1.270651964316e-001 1.373762156561e-001 1.215290674376e-001 1.382585054488e-001 1.206474264659e-001 1.400971993443e-001 1.256894775145e-001 1.390889288830e-001 1.239103705094e-001 1.370256844434e-001 1.285560524781e-001 1.376598963713e-001 1.226744273057e-001 1.391733977341e-001 1.403823823064e-001 1.203067890412e-001 1.356318737078e-001 1.305999827363e-001 1.337973327578e-001 1.307873333667e-001 1.307864829289e-001 1.315388521935e-001 1.315378637293e-001 1.350386244207e-001 1.288227984330e-001 1.372471748370e-001 1.226026976954e-001 1.379117791328e-001 1.202629046134e-001 1.396657598441e-001 1.241373667019e-001 1.399936737917e-001 1.297478841796e-001 1.297486351733e-001 1.334911519790e-001 1.334941699050e-001 1.399943061279e-001 1.241378567528e-001 1.396657625394e-001 1.202626456480e-001 1.379117769731e-001 1.226027246986e-001 1.372471747657e-001 1.288228032353e-001 1.350386250582e-001 1.337973322714e-001 1.305999824748e-001 1.285559508047e-001 1.356335554753e-001 1.390894645079e-001 1.403824800255e-001 1.256897412652e-001 1.226746534286e-001 1.400972054771e-001 1.391733942869e-001 1.206472811525e-001 1.203066755217e-001 1.382585037456e-001 1.376598959159e-001 1.215290743982e-001 1.239103905110e-001 1.373762155723e-001 1.370256844559e-001 1.270652015161e-001 1.359797024329e-001 1.322922900332e-001 1.376470568574e-001 1.271839906455e-001 1.403744849551e-001 1.214684046760e-001 1.386886625099e-001 1.207446194688e-001 1.374932051952e-001 1.254100733074e-001 1.366271839675e-001 1.315256073145e-001 1.284258799774e-001 1.297204591697e-001 1.316365512415e-001 1.320504217972e-001 1.327153465469e-001 1.324228973684e-001 1.320322847528e-001 1.311579142136e-001 1.324483519123e-001 1.327409235829e-001 1.296090423948e-001 1.283154869917e-001 1.321200846432e-001 1.292397819239e-001 1.325379534060e-001 
        </DataArray>
        <DataArray type="Int32" Name="MatGroup" format="ascii">
          0 0 0 0 0 0 0 0 0 0 0 0 0 0 0 0 0 0 0 0 0 0 0 0 0 0 0 0 0 0 0 0 0 0 0 0 0 0 0 0 0 0 0 0 0 0 0 0 0 0 0 0 0 0 0 0 0 0 0 0 0 0 0 0 0 0 0 0 0 0 0 0 0 0 0 0 0 0 0 0 0 0 0 0 0 0 0 0 0 0 0 0 0 0 0 0 0 0 0 0 0 0 
        </DataArray>
      </CellData>
    </Piece>
  </UnstructuredGrid>
</VTKFile>
