<?xml version="1.0"?>
<VTKFile type="UnstructuredGrid" version="0.1" byte_order="LittleEndian">
  <UnstructuredGrid>
    <Piece NumberOfPoints="246" NumberOfCells="200">
      <Points>
        <DataArray type="Float64" NumberOfComponents="3" format="ascii">
          0.000000000000e+000 0.000000000000e+000 0.000000000000e+000
          6.000000000000e-002 0.000000000000e+000 0.000000000000e+000
          6.000000000000e-002 4.000000000000e-002 0.000000000000e+000
          0.000000000000e+000 4.000000000000e-002 0.000000000000e+000
          6.000000000000e-002 8.000000000000e-002 0.000000000000e+000
          0.000000000000e+000 8.000000000000e-002 0.000000000000e+000
          6.000000000000e-002 1.200000000000e-001 0.000000000000e+000
          0.000000000000e+000 1.200000000000e-001 0.000000000000e+000
          6.000000000000e-002 1.600000000000e-001 0.000000000000e+000
          0.000000000000e+000 1.600000000000e-001 0.000000000000e+000
          6.000000000000e-002 2.000000000000e-001 0.000000000000e+000
          0.000000000000e+000 2.000000000000e-001 0.000000000000e+000
          1.200000000000e-001 0.000000000000e+000 0.000000000000e+000
          1.200000000000e-001 4.000000000000e-002 0.000000000000e+000
          1.200000000000e-001 8.000000000000e-002 0.000000000000e+000
          1.200000000000e-001 1.200000000000e-001 0.000000000000e+000
          1.200000000000e-001 1.600000000000e-001 0.000000000000e+000
          1.200000000000e-001 2.000000000000e-001 0.000000000000e+000
          1.800000000000e-001 0.000000000000e+000 0.000000000000e+000
          1.800000000000e-001 4.000000000000e-002 0.000000000000e+000
          1.800000000000e-001 8.000000000000e-002 0.000000000000e+000
          1.800000000000e-001 1.200000000000e-001 0.000000000000e+000
          1.800000000000e-001 1.600000000000e-001 0.000000000000e+000
          1.800000000000e-001 2.000000000000e-001 0.000000000000e+000
          2.400000000000e-001 0.000000000000e+000 0.000000000000e+000
          2.400000000000e-001 4.000000000000e-002 0.000000000000e+000
          2.400000000000e-001 8.000000000000e-002 0.000000000000e+000
          2.400000000000e-001 1.200000000000e-001 0.000000000000e+000
          2.400000000000e-001 1.600000000000e-001 0.000000000000e+000
          2.400000000000e-001 2.000000000000e-001 0.000000000000e+000
          3.000000000000e-001 0.000000000000e+000 0.000000000000e+000
          3.000000000000e-001 4.000000000000e-002 0.000000000000e+000
          3.000000000000e-001 8.000000000000e-002 0.000000000000e+000
          3.000000000000e-001 1.200000000000e-001 0.000000000000e+000
          3.000000000000e-001 1.600000000000e-001 0.000000000000e+000
          3.000000000000e-001 2.000000000000e-001 0.000000000000e+000
          3.600000000000e-001 0.000000000000e+000 0.000000000000e+000
          3.600000000000e-001 4.000000000000e-002 0.000000000000e+000
          3.600000000000e-001 8.000000000000e-002 0.000000000000e+000
          3.600000000000e-001 1.200000000000e-001 0.000000000000e+000
          3.600000000000e-001 1.600000000000e-001 0.000000000000e+000
          3.600000000000e-001 2.000000000000e-001 0.000000000000e+000
          4.200000000000e-001 0.000000000000e+000 0.000000000000e+000
          4.200000000000e-001 4.000000000000e-002 0.000000000000e+000
          4.200000000000e-001 8.000000000000e-002 0.000000000000e+000
          4.200000000000e-001 1.200000000000e-001 0.000000000000e+000
          4.200000000000e-001 1.600000000000e-001 0.000000000000e+000
          4.200000000000e-001 2.000000000000e-001 0.000000000000e+000
          4.800000000000e-001 0.000000000000e+000 0.000000000000e+000
          4.800000000000e-001 4.000000000000e-002 0.000000000000e+000
          4.800000000000e-001 8.000000000000e-002 0.000000000000e+000
          4.800000000000e-001 1.200000000000e-001 0.000000000000e+000
          4.800000000000e-001 1.600000000000e-001 0.000000000000e+000
          4.800000000000e-001 2.000000000000e-001 0.000000000000e+000
          5.400000000000e-001 0.000000000000e+000 0.000000000000e+000
          5.400000000000e-001 4.000000000000e-002 0.000000000000e+000
          5.400000000000e-001 8.000000000000e-002 0.000000000000e+000
          5.400000000000e-001 1.200000000000e-001 0.000000000000e+000
          5.400000000000e-001 1.600000000000e-001 0.000000000000e+000
          5.400000000000e-001 2.000000000000e-001 0.000000000000e+000
          6.000000000000e-001 0.000000000000e+000 0.000000000000e+000
          6.000000000000e-001 4.000000000000e-002 0.000000000000e+000
          6.000000000000e-001 8.000000000000e-002 0.000000000000e+000
          6.000000000000e-001 1.200000000000e-001 0.000000000000e+000
          6.000000000000e-001 1.600000000000e-001 0.000000000000e+000
          6.000000000000e-001 2.000000000000e-001 0.000000000000e+000
          6.600000000000e-001 0.000000000000e+000 0.000000000000e+000
          6.600000000000e-001 4.000000000000e-002 0.000000000000e+000
          6.600000000000e-001 8.000000000000e-002 0.000000000000e+000
          6.600000000000e-001 1.200000000000e-001 0.000000000000e+000
          6.600000000000e-001 1.600000000000e-001 0.000000000000e+000
          6.600000000000e-001 2.000000000000e-001 0.000000000000e+000
          7.200000000000e-001 0.000000000000e+000 0.000000000000e+000
          7.200000000000e-001 4.000000000000e-002 0.000000000000e+000
          7.200000000000e-001 8.000000000000e-002 0.000000000000e+000
          7.200000000000e-001 1.200000000000e-001 0.000000000000e+000
          7.200000000000e-001 1.600000000000e-001 0.000000000000e+000
          7.200000000000e-001 2.000000000000e-001 0.000000000000e+000
          7.800000000000e-001 0.000000000000e+000 0.000000000000e+000
          7.800000000000e-001 4.000000000000e-002 0.000000000000e+000
          7.800000000000e-001 8.000000000000e-002 0.000000000000e+000
          7.800000000000e-001 1.200000000000e-001 0.000000000000e+000
          7.800000000000e-001 1.600000000000e-001 0.000000000000e+000
          7.800000000000e-001 2.000000000000e-001 0.000000000000e+000
          8.400000000000e-001 0.000000000000e+000 0.000000000000e+000
          8.400000000000e-001 4.000000000000e-002 0.000000000000e+000
          8.400000000000e-001 8.000000000000e-002 0.000000000000e+000
          8.400000000000e-001 1.200000000000e-001 0.000000000000e+000
          8.400000000000e-001 1.600000000000e-001 0.000000000000e+000
          8.400000000000e-001 2.000000000000e-001 0.000000000000e+000
          9.000000000000e-001 0.000000000000e+000 0.000000000000e+000
          9.000000000000e-001 4.000000000000e-002 0.000000000000e+000
          9.000000000000e-001 8.000000000000e-002 0.000000000000e+000
          9.000000000000e-001 1.200000000000e-001 0.000000000000e+000
          9.000000000000e-001 1.600000000000e-001 0.000000000000e+000
          9.000000000000e-001 2.000000000000e-001 0.000000000000e+000
          9.600000000000e-001 0.000000000000e+000 0.000000000000e+000
          9.600000000000e-001 4.000000000000e-002 0.000000000000e+000
          9.600000000000e-001 8.000000000000e-002 0.000000000000e+000
          9.600000000000e-001 1.200000000000e-001 0.000000000000e+000
          9.600000000000e-001 1.600000000000e-001 0.000000000000e+000
          9.600000000000e-001 2.000000000000e-001 0.000000000000e+000
          1.020000000000e+000 0.000000000000e+000 0.000000000000e+000
          1.020000000000e+000 4.000000000000e-002 0.000000000000e+000
          1.020000000000e+000 8.000000000000e-002 0.000000000000e+000
          1.020000000000e+000 1.200000000000e-001 0.000000000000e+000
          1.020000000000e+000 1.600000000000e-001 0.000000000000e+000
          1.020000000000e+000 2.000000000000e-001 0.000000000000e+000
          1.080000000000e+000 0.000000000000e+000 0.000000000000e+000
          1.080000000000e+000 4.000000000000e-002 0.000000000000e+000
          1.080000000000e+000 8.000000000000e-002 0.000000000000e+000
          1.080000000000e+000 1.200000000000e-001 0.000000000000e+000
          1.080000000000e+000 1.600000000000e-001 0.000000000000e+000
          1.080000000000e+000 2.000000000000e-001 0.000000000000e+000
          1.140000000000e+000 0.000000000000e+000 0.000000000000e+000
          1.140000000000e+000 4.000000000000e-002 0.000000000000e+000
          1.140000000000e+000 8.000000000000e-002 0.000000000000e+000
          1.140000000000e+000 1.200000000000e-001 0.000000000000e+000
          1.140000000000e+000 1.600000000000e-001 0.000000000000e+000
          1.140000000000e+000 2.000000000000e-001 0.000000000000e+000
          1.200000000000e+000 0.000000000000e+000 0.000000000000e+000
          1.200000000000e+000 4.000000000000e-002 0.000000000000e+000
          1.200000000000e+000 8.000000000000e-002 0.000000000000e+000
          1.200000000000e+000 1.200000000000e-001 0.000000000000e+000
          1.200000000000e+000 1.600000000000e-001 0.000000000000e+000
          1.200000000000e+000 2.000000000000e-001 0.000000000000e+000
          1.260000000000e+000 0.000000000000e+000 0.000000000000e+000
          1.260000000000e+000 4.000000000000e-002 0.000000000000e+000
          1.260000000000e+000 8.000000000000e-002 0.000000000000e+000
          1.260000000000e+000 1.200000000000e-001 0.000000000000e+000
          1.260000000000e+000 1.600000000000e-001 0.000000000000e+000
          1.260000000000e+000 2.000000000000e-001 0.000000000000e+000
          1.320000000000e+000 0.000000000000e+000 0.000000000000e+000
          1.320000000000e+000 4.000000000000e-002 0.000000000000e+000
          1.320000000000e+000 8.000000000000e-002 0.000000000000e+000
          1.320000000000e+000 1.200000000000e-001 0.000000000000e+000
          1.320000000000e+000 1.600000000000e-001 0.000000000000e+000
          1.320000000000e+000 2.000000000000e-001 0.000000000000e+000
          1.380000000000e+000 0.000000000000e+000 0.000000000000e+000
[...]
      <PointData Scalars="MEAN_PRESSURE">
        <DataArray type="Float64" Name="MEAN_PRESSURE" format="ascii">
          1.013250000000e+005 1.013324199703e+005 1.013324199703e+005 1.013250000000e+005 1.013324199703e+005 1.013250000000e+005 1.013324199703e+005 1.013250000000e+005 1.013324199703e+005 1.013250000000e+005 1.013324199703e+005 1.013250000000e+005 1.013398395811e+005 1.013398395811e+005 1.013398395811e+005 1.013398395811e+005 1.013398395811e+005 1.013398395811e+005 1.013472584130e+005 1.013472584130e+005 1.013472584130e+005 1.013472584130e+005 1.013472584130e+005 1.013472584130e+005 1.013546760460e+005 1.013546760460e+005 1.013546760460e+005 1.013546760460e+005 1.013546760460e+005 1.013546760460e+005 1.013620920595e+005 1.013620920595e+005 1.013620920595e+005 1.013620920595e+005 1.013620920595e+005 1.013620920595e+005 1.013695060314e+005 1.013695060314e+005 1.013695060314e+005 1.013695060314e+005 1.013695060314e+005 1.013695060314e+005 1.013769175378e+005 1.013769175378e+005 1.013769175378e+005 1.013769175378e+005 1.013769175378e+005 1.013769175378e+005 1.013843261506e+005 1.013843261506e+005 1.013843261506e+005 1.013843261506e+005 1.013843261506e+005 1.013843261506e+005 1.013917314359e+005 1.013917314359e+005 1.013917314359e+005 1.013917314359e+005 1.013917314359e+005 1.013917314358e+005 1.013991329491e+005 1.013991329491e+005 1.013991329491e+005 1.013991329490e+005 1.013991329490e+005 1.013991329490e+005 1.014065302288e+005 1.014065302287e+005 1.014065302287e+005 1.014065302287e+005 1.014065302286e+005 1.014065302286e+005 1.014139227860e+005 1.014139227860e+005 1.014139227859e+005 1.014139227858e+005 1.014139227858e+005 1.014139227857e+005 1.014213100881e+005 1.014213100880e+005 1.014213100879e+005 1.014213100878e+005 1.014213100877e+005 1.014213100877e+005 1.014286915336e+005 1.014286915335e+005 1.014286915334e+005 1.014286915332e+005 1.014286915331e+005 1.014286915330e+005 1.014360664151e+005 1.014360664149e+005 1.014360664147e+005 1.014360664145e+005 1.014360664142e+005 1.014360664141e+005 1.014434338643e+005 1.014434338641e+005 1.014434338638e+005 1.014434338634e+005 1.014434338631e+005 1.014434338629e+005 1.014507927750e+005 1.014507927747e+005 1.014507927742e+005 1.014507927737e+005 1.014507927732e+005 1.014507927729e+005 1.014581416950e+005 1.014581416947e+005 1.014581416940e+005 1.014581416933e+005 1.014581416926e+005 1.014581416922e+005 1.014654786819e+005 1.014654786814e+005 1.014654786804e+005 1.014654786794e+005 1.014654786785e+005 1.014654786780e+005 1.014728011128e+005 1.014728011121e+005 1.014728011109e+005 1.014728011096e+005 1.014728011084e+005 1.014728011077e+005 1.014801054445e+005 1.014801054437e+005 1.014801054422e+005 1.014801054406e+005 1.014801054390e+005 1.014801054382e+005 1.014873869167e+005 1.014873869159e+005 1.014873869141e+005 1.014873869121e+005 1.014873869103e+005 1.014873869094e+005 1.014946391968e+005 1.014946391960e+005 1.014946391940e+005 1.014946391917e+005 1.014946391898e+005 1.014946391889e+005 1.015018539659e+005 1.015018539654e+005 1.015018539634e+005 1.015018539611e+005 1.015018539592e+005 1.015018539587e+005 1.015090204493e+005 1.015090204493e+005 1.015090204479e+005 1.015090204459e+005 1.015090204445e+005 1.015090204445e+005 1.015161248945e+005 1.015161248956e+005 1.015161248953e+005 1.015161248943e+005 1.015161248941e+005 1.015161248952e+005 1.015231499979e+005 1.015231500008e+005 1.015231500028e+005 1.015231500036e+005 1.015231500056e+005 1.015231500085e+005 1.015300742597e+005 1.015300742654e+005 1.015300742709e+005 1.015300742749e+005 1.015300742804e+005 1.015300742861e+005 1.015368712014e+005 1.015368712106e+005 1.015368712213e+005 1.015368712298e+005 1.015368712404e+005 1.015368712496e+005 1.015435083360e+005 1.015435083517e+005 1.015435083699e+005 1.015435083847e+005 1.015435084027e+005 1.015435084180e+005 1.015499456844e+005 1.015499457019e+005 1.015499457266e+005 1.015499457477e+005 1.015499457724e+005 1.015499457909e+005 1.015561342420e+005 1.015561342783e+005 1.015561343153e+005 1.015561343449e+005 1.015561343796e+005 1.015561344101e+005 1.015620116205e+005 1.015620116394e+005 1.015620116742e+005 1.015620116981e+005 1.015620117381e+005 1.015620117727e+005 1.015675026912e+005 1.015675027293e+005 1.015675027359e+005 1.015675027340e+005 1.015675027177e+005 1.015675027091e+005 1.015724802940e+005 1.015724803402e+005 1.015724803775e+005 1.015724803573e+005 1.015724804342e+005 1.015724805656e+005 1.015768200130e+005 1.015768200405e+005 1.015768197958e+005 1.015768193958e+005 1.015768191223e+005 1.015768190487e+005 1.015802738199e+005 1.015802740130e+005 1.015802734658e+005 1.015802728383e+005 1.015802722832e+005 1.015802724533e+005 1.015825849605e+005 1.015825836444e+005 1.015825831657e+005 1.015825827753e+005 1.015825823032e+005 1.015825810889e+005 1.015821035255e+005 1.015821048581e+005 1.015821050428e+005 1.015821049406e+005 1.015821051242e+005 1.015821063184e+005 1.015779928864e+005 1.015779918785e+005 1.015779911404e+005 1.015779907211e+005 1.015779899742e+005 1.015779890410e+005 
        </DataArray>
        <DataArray type="Float64" Name="TEMPERATURE" format="ascii">
          3.431500000000e+002 3.431500004681e+002 3.431500004681e+002 3.431500000000e+002 3.431500004681e+002 3.431500000000e+002 3.431500004681e+002 3.431500000000e+002 3.431500004681e+002 3.431500000000e+002 3.431500004681e+002 3.431500000000e+002 3.431500011408e+002 3.431500011408e+002 3.431500011408e+002 3.431500011408e+002 3.431500011408e+002 3.431500011408e+002 3.431500022857e+002 3.431500022857e+002 3.431500022857e+002 3.431500022857e+002 3.431500022857e+002 3.431500022857e+002 3.431500043512e+002 3.431500043512e+002 3.431500043512e+002 3.431500043512e+002 3.431500043512e+002 3.431500043512e+002 3.431500081260e+002 3.431500081260e+002 3.431500081260e+002 3.431500081260e+002 3.431500081260e+002 3.431500081260e+002 3.431500150108e+002 3.431500150108e+002 3.431500150108e+002 3.431500150108e+002 3.431500150108e+002 3.431500150108e+002 3.431500274836e+002 3.431500274836e+002 3.431500274836e+002 3.431500274836e+002 3.431500274836e+002 3.431500274836e+002 3.431500498890e+002 3.431500498890e+002 3.431500498890e+002 3.431500498890e+002 3.431500498890e+002 3.431500498890e+002 3.431500897632e+002 3.431500897632e+002 3.431500897632e+002 3.431500897632e+002 3.431500897632e+002 3.431500897632e+002 3.431501600252e+002 3.431501600252e+002 3.431501600252e+002 3.431501600252e+002 3.431501600252e+002 3.431501600252e+002 3.431502825418e+002 3.431502825418e+002 3.431502825418e+002 3.431502825417e+002 3.431502825417e+002 3.431502825417e+002 3.431504938295e+002 3.431504938295e+002 3.431504938295e+002 3.431504938295e+002 3.431504938295e+002 3.431504938295e+002 3.431508540024e+002 3.431508540024e+002 3.431508540024e+002 3.431508540024e+002 3.431508540024e+002 3.431508540024e+002 3.431514605324e+002 3.431514605324e+002 3.431514605324e+002 3.431514605323e+002 3.431514605323e+002 3.431514605323e+002 3.431524689524e+002 3.431524689524e+002 3.431524689524e+002 3.431524689524e+002 3.431524689523e+002 3.431524689523e+002 3.431541232859e+002 3.431541232859e+002 3.431541232858e+002 3.431541232857e+002 3.431541232857e+002 3.431541232857e+002 3.431567996591e+002 3.431567996590e+002 3.431567996589e+002 3.431567996588e+002 3.431567996586e+002 3.431567996585e+002 3.431610671589e+002 3.431610671587e+002 3.431610671584e+002 3.431610671580e+002 3.431610671577e+002 3.431610671575e+002 3.431677703736e+002 3.431677703732e+002 3.431677703724e+002 3.431677703716e+002 3.431677703708e+002 3.431677703704e+002 3.431781380355e+002 3.431781380345e+002 3.431781380327e+002 3.431781380308e+002 3.431781380291e+002 3.431781380281e+002 3.431939215682e+002 3.431939215659e+002 3.431939215620e+002 3.431939215579e+002 3.431939215540e+002 3.431939215517e+002 3.432175659544e+002 3.432175659496e+002 3.432175659412e+002 3.432175659323e+002 3.432175659239e+002 3.432175659191e+002 3.432524129476e+002 3.432524129377e+002 3.432524129202e+002 3.432524129016e+002 3.432524128842e+002 3.432524128743e+002 3.433029329779e+002 3.433029329580e+002 3.433029329228e+002 3.433029328855e+002 3.433029328502e+002 3.433029328304e+002 3.433749768086e+002 3.433749767701e+002 3.433749767013e+002 3.433749766285e+002 3.433749765599e+002 3.433749765213e+002 3.434760311797e+002 3.434760311073e+002 3.434760309776e+002 3.434760308403e+002 3.434760307107e+002 3.434760306385e+002 3.436154558794e+002 3.436154557482e+002 3.436154555117e+002 3.436154552610e+002 3.436154550249e+002 3.436154548939e+002 3.438046766989e+002 3.438046764694e+002 3.438046760527e+002 3.438046756105e+002 3.438046751946e+002 3.438046749656e+002 3.440573124612e+002 3.440573120736e+002 3.440573113648e+002 3.440573106121e+002 3.440573099051e+002 3.440573095188e+002 3.443892151646e+002 3.443892145353e+002 3.443892133737e+002 3.443892121383e+002 3.443892109808e+002 3.443892103543e+002 3.448183669274e+002 3.448183659407e+002 3.448183641081e+002 3.448183621587e+002 3.448183603346e+002 3.448183593546e+002 3.453644917937e+002 3.453644903481e+002 3.453644875979e+002 3.453644846515e+002 3.453644819187e+002 3.453644804819e+002 3.460482902775e+002 3.460482881335e+002 3.460482840778e+002 3.460482797604e+002 3.460482757465e+002 3.460482736516e+002 3.468908846714e+002 3.468908819930e+002 3.468908763447e+002 3.468908700448e+002 3.468908644188e+002 3.468908616649e+002 3.479148507751e+002 3.479148464211e+002 3.479148370581e+002 3.479148270022e+002 3.479148180616e+002 3.479148143264e+002 3.491442966366e+002 3.491442867774e+002 3.491442745145e+002 3.491442651856e+002 3.491442527526e+002 3.491442422333e+002 3.505870594013e+002 3.505870708563e+002 3.505870760629e+002 3.505870761859e+002 3.505870806823e+002 3.505870912055e+002 3.522290761320e+002 3.522290729921e+002 3.522290701678e+002 3.522290660449e+002 3.522290636626e+002 3.522290618554e+002 3.542879585629e+002 3.542879633364e+002 3.542879635022e+002 3.542879714094e+002 3.542879718934e+002 3.542879768733e+002 3.562583209990e+002 3.562582635087e+002 3.562582772359e+002 3.562583056385e+002 3.562583184387e+002 3.562582614044e+002 
        </DataArray>
        <DataArray type="Float64" Name="TOTAL_MASS_DENSITY" format="ascii">
          7.199780000000e-003 7.199773571528e-003 7.199773555047e-003 7.199780000000e-003 7.199773556158e-003 7.199780000000e-003 7.199773556042e-003 7.199780000000e-003 7.199773557154e-003 7.199780000000e-003 7.199773540672e-003 7.199780000000e-003 7.199772679564e-003 7.199772641636e-003 7.199772644060e-003 7.199772643844e-003 7.199772646267e-003 7.199772608340e-003 7.199772392601e-003 7.199772317511e-003 7.199772322142e-003 7.199772321765e-003 7.199772326395e-003 7.199772251304e-003 7.199771769956e-003 7.199771628406e-003 7.199771636713e-003 7.199771636133e-003 7.199771644440e-003 7.199771502889e-003 7.199770568373e-003 7.199770306445e-003 7.199770320953e-003 7.199770320141e-003 7.199770334648e-003 7.199770072721e-003 7.199768354857e-003 7.199767875656e-003 7.199767900464e-003 7.199767899486e-003 7.199767924295e-003 7.199767445094e-003 7.199764312307e-003 7.199763443948e-003 7.199763485496e-003 7.199763484685e-003 7.199763526232e-003 7.199762657874e-003 7.199757014139e-003 7.199755455322e-003 7.199755523283e-003 7.199755523628e-003 7.199755591589e-003 7.199754032772e-003 7.199743980862e-003 7.199741209663e-003 7.199741317728e-003 7.199741321662e-003 7.199741429727e-003 7.199738658529e-003 7.199720952813e-003 7.199716076315e-003 7.199716242131e-003 7.199716255082e-003 7.199716420897e-003 7.199711544405e-003 7.199680703329e-003 7.199672213900e-003 7.199672456500e-003 7.199672489814e-003 7.199672732417e-003 7.199664243005e-003 7.199611133401e-003 7.199596520896e-003 7.199596852160e-003 7.199596928369e-003 7.199597259637e-003 7.199582647187e-003 7.199492268876e-003 7.199467415869e-003 7.199467819210e-003 7.199467981155e-003 7.199468384509e-003 7.199443531661e-003 7.199291619874e-003 7.199249878832e-003 7.199250262676e-003 7.199250588585e-003 7.199250972472e-003 7.199209231874e-003 7.198957157814e-003 7.198887975923e-003 7.198888080175e-003 7.198888707277e-003 7.198888811663e-003 7.198819630987e-003 7.198406921112e-003 7.198293843238e-003 7.198293062372e-003 7.198294221536e-003 7.198293441078e-003 7.198180366425e-003 7.197513988750e-003 7.197331837593e-003 7.197328902655e-003 7.197330964682e-003 7.197328030949e-003 7.197145888080e-003 7.196085284415e-003 7.195796298292e-003 7.195788730736e-003 7.195792259590e-003 7.195784695479e-003 7.195495730021e-003 7.193832423249e-003 7.193381137686e-003 7.193364350892e-003 7.193370147172e-003 7.193353369917e-003 7.192902134230e-003 7.190332617762e-003 7.189639318780e-003 7.189605200970e-003 7.189614296263e-003 7.189580204000e-003 7.188887021443e-003 7.184977534398e-003 7.183930197354e-003 7.183864969348e-003 7.183878493986e-003 7.183813332065e-003 7.182766257604e-003 7.176907908601e-003 7.175352670166e-003 7.175233781710e-003 7.175252572172e-003 7.175133848730e-003 7.173579182694e-003 7.164931713307e-003 7.162662094969e-003 7.162453923461e-003 7.162477661899e-003 7.162269887575e-003 7.160001473795e-003 7.147423262625e-003 7.144168619370e-003 7.143816758365e-003 7.143842360923e-003 7.143491423052e-003 7.140239235360e-003 7.122201675899e-003 7.117615435535e-003 7.117039481482e-003 7.117058388530e-003 7.116484495430e-003 7.111903086544e-003 7.086381473649e-003 7.080031098918e-003 7.079116007618e-003 7.079110086147e-003 7.078199465243e-003 7.071858366384e-003 7.036205135626e-003 7.027561151143e-003 7.026147190154e-003 7.026082791184e-003 7.024678053751e-003 7.016051297207e-003 6.966824212402e-003 6.955270683815e-003 6.953146518149e-003 6.952968518866e-003 6.950863130963e-003 6.939340663503e-003 6.871977346665e-003 6.856753758926e-003 6.853636089592e-003 6.853253950488e-003 6.850172435177e-003 6.835007965634e-003 6.744642890013e-003 6.725122764849e-003 6.720717555958e-003 6.720029358914e-003 6.715689354964e-003 6.696245450825e-003 6.570518843097e-003 6.545253811641e-003 6.539070235219e-003 6.537851988843e-003 6.531810458146e-003 6.506842235863e-003 6.362750268862e-003 6.332890683775e-003 6.324724245824e-003 6.323013273051e-003 6.314958335206e-003 6.284774215529e-003 6.000082074076e-003 5.960819963364e-003 5.951291999065e-003 5.948592284804e-003 5.939752193686e-003 5.903463903982e-003 5.901407094529e-003 5.855471649837e-003 5.836127668113e-003 5.832611659873e-003 5.813002685494e-003 5.759635699453e-003 4.582651154724e-003 4.562848436682e-003 4.570962782813e-003 4.567698394119e-003 4.577626812599e-003 4.579545375937e-003 7.055204557242e-003 6.799749517043e-003 6.690096967120e-003 6.677364860746e-003 6.572751032614e-003 6.297335328955e-003 1.080668681794e-002 1.079775393073e-002 1.083274107370e-002 1.087124850481e-002 1.090222027648e-002 1.088633998588e-002 9.775657606803e-003 9.764836903230e-003 9.794983753613e-003 9.828852654116e-003 9.858400614174e-003 9.848697313106e-003 9.180623631564e-003 9.217665440808e-003 9.281543085352e-003 9.284608007153e-003 9.348803489167e-003 9.380528804659e-003 7.976528123897e-003 8.283786645418e-003 8.241327760599e-003 8.238275787384e-003 8.196841602543e-003 8.499038064190e-003 
        </DataArray>
      </PointData>
      <CellData>
        <DataArray type="Float64" Name="Saturation" format="ascii">
          1.019208663897e-002 1.019208663357e-002 1.019208663392e-002 1.019208663427e-002 1.019208662886e-002 1.019100259017e-002 1.019100257229e-002 1.019100257342e-002 1.019100257454e-002 1.019100255667e-002 1.018992323651e-002 1.018992319928e-002 1.018992320155e-002 1.018992320382e-002 1.018992316659e-002 1.018884458288e-002 1.018884451131e-002 1.018884451552e-002 1.018884451973e-002 1.018884444816e-002 1.018776598330e-002 1.018776584958e-002 1.018776585710e-002 1.018776586463e-002 1.018776573090e-002 1.018668724512e-002 1.018668699860e-002 1.018668701178e-002 1.018668702496e-002 1.018668677845e-002 1.018560794416e-002 1.018560749418e-002 1.018560751685e-002 1.018560753953e-002 1.018560708955e-002 1.018452725789e-002 1.018452644396e-002 1.018452648225e-002 1.018452652055e-002 1.018452570662e-002 1.018344371183e-002 1.018344225316e-002 1.018344231647e-002 1.018344237979e-002 1.018344092112e-002 1.018235471766e-002 1.018235212862e-002 1.018235223071e-002 1.018235233281e-002 1.018234974377e-002 1.018125582036e-002 1.018125127128e-002 1.018125143091e-002 1.018125159054e-002 1.018124704147e-002 1.018013948154e-002 1.018013157325e-002 1.018013181315e-002 1.018013205306e-002 1.018012414479e-002 1.017899314711e-002 1.017897955227e-002 1.017897989373e-002 1.017898023519e-002 1.017896664043e-002 1.017779623566e-002 1.017777313908e-002 1.017777358661e-002 1.017777403415e-002 1.017775093781e-002 1.017651553757e-002 1.017647678099e-002 1.017647728677e-002 1.017647779260e-002 1.017643903667e-002 1.017509833284e-002 1.017503413688e-002 1.017503452631e-002 1.017503491594e-002 1.017497072172e-002 1.017346232055e-002 1.017335742061e-002 1.017335724710e-002 1.017335707414e-002 1.017325217879e-002 1.017148121316e-002 1.017131220954e-002 1.017131048613e-002 1.017130876435e-002 1.017113977248e-002 1.016896459180e-002 1.016869628472e-002 1.016869101096e-002 1.016868574175e-002 1.016841746384e-002 1.016563034644e-002 1.016521081144e-002 1.016519817315e-002 1.016518554717e-002 1.016476608251e-002 1.016106771470e-002 1.016042188147e-002 1.016039495010e-002 1.016036805089e-002 1.015972238207e-002 1.015468851001e-002 1.015371004440e-002 1.015365674217e-002 1.015360352108e-002 1.015262542798e-002 1.014566350511e-002 1.014420486191e-002 1.014410489717e-002 1.014400512993e-002 1.014254730443e-002 1.013283969305e-002 1.013070031585e-002 1.013052073642e-002 1.013034162119e-002 1.012820398634e-002 1.011463298884e-002 1.011154572588e-002 1.011123471546e-002 1.011092475555e-002 1.010784109005e-002 1.008888568589e-002 1.008450198036e-002 1.008398057542e-002 1.008346147402e-002 1.007908501010e-002 1.005268096593e-002 1.004655410279e-002 1.004570543022e-002 1.004486160007e-002 1.003874887754e-002 1.000209224579e-002 9.993666512042e-003 9.992324352716e-003 9.990992131623e-003 9.982593332849e-003 9.931756886198e-003 9.920333259711e-003 9.918262991754e-003 9.916212318259e-003 9.904840190642e-003 9.835117620249e-003 9.819935273502e-003 9.816848109595e-003 9.813797345920e-003 9.798699518996e-003 9.699657182911e-003 9.679585972707e-003 9.675056108783e-003 9.670601363542e-003 9.650739707884e-003 9.528189668194e-003 9.502709522169e-003 9.496370994847e-003 9.490125347800e-003 9.464725946049e-003 9.241590824884e-003 9.209251633599e-003 9.201016940202e-003 9.193080432761e-003 9.162027213577e-003 9.065600490213e-003 9.022263403452e-003 9.008923815679e-003 8.995743189757e-003 8.950853316433e-003 8.191039253405e-003 8.161149045097e-003 8.154183122631e-003 8.147824880358e-003 8.124166467065e-003 9.311213119680e-003 9.159226544430e-003 9.111771617815e-003 9.067069534026e-003 8.918383858221e-003 1.488258349169e-002 1.474301886155e-002 1.472320659988e-002 1.470379308982e-002 1.455343779691e-002 1.807714071413e-002 1.809677319897e-002 1.815629862589e-002 1.821383403314e-002 1.822898594567e-002 1.782377583989e-002 1.787990930716e-002 1.794053171312e-002 1.800102257436e-002 1.805503441397e-002 1.766716100545e-002 1.785186213115e-002 1.786182383959e-002 1.787246145113e-002 1.805254883660e-002 
        </DataArray>
        <DataArray type="Int32" Name="MatGroup" format="ascii">
          0 0 0 0 0 0 0 0 0 0 0 0 0 0 0 0 0 0 0 0 0 0 0 0 0 0 0 0 0 0 0 0 0 0 0 0 0 0 0 0 0 0 0 0 0 0 0 0 0 0 0 0 0 0 0 0 0 0 0 0 0 0 0 0 0 0 0 0 0 0 0 0 0 0 0 0 0 0 0 0 0 0 0 0 0 0 0 0 0 0 0 0 0 0 0 0 0 0 0 0 0 0 0 0 0 0 0 0 0 0 0 0 0 0 0 0 0 0 0 0 0 0 0 0 0 0 0 0 0 0 0 0 0 0 0 0 0 0 0 0 0 0 0 0 0 0 0 0 0 0 0 0 0 0 0 0 0 0 0 0 0 0 0 0 0 0 0 0 0 0 0 0 0 0 0 0 0 0 0 0 0 0 0 0 0 0 0 0 0 0 0 0 0 0 0 0 0 0 0 0 
        </DataArray>
      </CellData>
    </Piece>
  </UnstructuredGrid>
</VTKFile>
