<?xml version="1.0"?>
<VTKFile type="UnstructuredGrid" version="0.1" byte_order="LittleEndian">
  <UnstructuredGrid>
    <Piece NumberOfPoints="246" NumberOfCells="200">
      <Points>
        <DataArray type="Float64" NumberOfComponents="3" format="ascii">
          0.000000000000e+000 0.000000000000e+000 0.000000000000e+000
          6.000000000000e-002 0.000000000000e+000 0.000000000000e+000
          6.000000000000e-002 4.000000000000e-002 0.000000000000e+000
          0.000000000000e+000 4.000000000000e-002 0.000000000000e+000
          6.000000000000e-002 8.000000000000e-002 0.000000000000e+000
          0.000000000000e+000 8.000000000000e-002 0.000000000000e+000
          6.000000000000e-002 1.200000000000e-001 0.000000000000e+000
          0.000000000000e+000 1.200000000000e-001 0.000000000000e+000
          6.000000000000e-002 1.600000000000e-001 0.000000000000e+000
          0.000000000000e+000 1.600000000000e-001 0.000000000000e+000
          6.000000000000e-002 2.000000000000e-001 0.000000000000e+000
          0.000000000000e+000 2.000000000000e-001 0.000000000000e+000
          1.200000000000e-001 0.000000000000e+000 0.000000000000e+000
          1.200000000000e-001 4.000000000000e-002 0.000000000000e+000
          1.200000000000e-001 8.000000000000e-002 0.000000000000e+000
          1.200000000000e-001 1.200000000000e-001 0.000000000000e+000
          1.200000000000e-001 1.600000000000e-001 0.000000000000e+000
          1.200000000000e-001 2.000000000000e-001 0.000000000000e+000
          1.800000000000e-001 0.000000000000e+000 0.000000000000e+000
          1.800000000000e-001 4.000000000000e-002 0.000000000000e+000
          1.800000000000e-001 8.000000000000e-002 0.000000000000e+000
          1.800000000000e-001 1.200000000000e-001 0.000000000000e+000
          1.800000000000e-001 1.600000000000e-001 0.000000000000e+000
          1.800000000000e-001 2.000000000000e-001 0.000000000000e+000
          2.400000000000e-001 0.000000000000e+000 0.000000000000e+000
          2.400000000000e-001 4.000000000000e-002 0.000000000000e+000
          2.400000000000e-001 8.000000000000e-002 0.000000000000e+000
          2.400000000000e-001 1.200000000000e-001 0.000000000000e+000
          2.400000000000e-001 1.600000000000e-001 0.000000000000e+000
          2.400000000000e-001 2.000000000000e-001 0.000000000000e+000
          3.000000000000e-001 0.000000000000e+000 0.000000000000e+000
          3.000000000000e-001 4.000000000000e-002 0.000000000000e+000
          3.000000000000e-001 8.000000000000e-002 0.000000000000e+000
          3.000000000000e-001 1.200000000000e-001 0.000000000000e+000
          3.000000000000e-001 1.600000000000e-001 0.000000000000e+000
          3.000000000000e-001 2.000000000000e-001 0.000000000000e+000
          3.600000000000e-001 0.000000000000e+000 0.000000000000e+000
          3.600000000000e-001 4.000000000000e-002 0.000000000000e+000
          3.600000000000e-001 8.000000000000e-002 0.000000000000e+000
          3.600000000000e-001 1.200000000000e-001 0.000000000000e+000
          3.600000000000e-001 1.600000000000e-001 0.000000000000e+000
          3.600000000000e-001 2.000000000000e-001 0.000000000000e+000
          4.200000000000e-001 0.000000000000e+000 0.000000000000e+000
          4.200000000000e-001 4.000000000000e-002 0.000000000000e+000
          4.200000000000e-001 8.000000000000e-002 0.000000000000e+000
          4.200000000000e-001 1.200000000000e-001 0.000000000000e+000
          4.200000000000e-001 1.600000000000e-001 0.000000000000e+000
          4.200000000000e-001 2.000000000000e-001 0.000000000000e+000
          4.800000000000e-001 0.000000000000e+000 0.000000000000e+000
          4.800000000000e-001 4.000000000000e-002 0.000000000000e+000
          4.800000000000e-001 8.000000000000e-002 0.000000000000e+000
          4.800000000000e-001 1.200000000000e-001 0.000000000000e+000
          4.800000000000e-001 1.600000000000e-001 0.000000000000e+000
          4.800000000000e-001 2.000000000000e-001 0.000000000000e+000
          5.400000000000e-001 0.000000000000e+000 0.000000000000e+000
          5.400000000000e-001 4.000000000000e-002 0.000000000000e+000
          5.400000000000e-001 8.000000000000e-002 0.000000000000e+000
          5.400000000000e-001 1.200000000000e-001 0.000000000000e+000
          5.400000000000e-001 1.600000000000e-001 0.000000000000e+000
          5.400000000000e-001 2.000000000000e-001 0.000000000000e+000
          6.000000000000e-001 0.000000000000e+000 0.000000000000e+000
          6.000000000000e-001 4.000000000000e-002 0.000000000000e+000
          6.000000000000e-001 8.000000000000e-002 0.000000000000e+000
          6.000000000000e-001 1.200000000000e-001 0.000000000000e+000
          6.000000000000e-001 1.600000000000e-001 0.000000000000e+000
          6.000000000000e-001 2.000000000000e-001 0.000000000000e+000
          6.600000000000e-001 0.000000000000e+000 0.000000000000e+000
          6.600000000000e-001 4.000000000000e-002 0.000000000000e+000
          6.600000000000e-001 8.000000000000e-002 0.000000000000e+000
          6.600000000000e-001 1.200000000000e-001 0.000000000000e+000
          6.600000000000e-001 1.600000000000e-001 0.000000000000e+000
          6.600000000000e-001 2.000000000000e-001 0.000000000000e+000
          7.200000000000e-001 0.000000000000e+000 0.000000000000e+000
          7.200000000000e-001 4.000000000000e-002 0.000000000000e+000
          7.200000000000e-001 8.000000000000e-002 0.000000000000e+000
          7.200000000000e-001 1.200000000000e-001 0.000000000000e+000
          7.200000000000e-001 1.600000000000e-001 0.000000000000e+000
          7.200000000000e-001 2.000000000000e-001 0.000000000000e+000
          7.800000000000e-001 0.000000000000e+000 0.000000000000e+000
          7.800000000000e-001 4.000000000000e-002 0.000000000000e+000
          7.800000000000e-001 8.000000000000e-002 0.000000000000e+000
          7.800000000000e-001 1.200000000000e-001 0.000000000000e+000
          7.800000000000e-001 1.600000000000e-001 0.000000000000e+000
          7.800000000000e-001 2.000000000000e-001 0.000000000000e+000
          8.400000000000e-001 0.000000000000e+000 0.000000000000e+000
          8.400000000000e-001 4.000000000000e-002 0.000000000000e+000
          8.400000000000e-001 8.000000000000e-002 0.000000000000e+000
          8.400000000000e-001 1.200000000000e-001 0.000000000000e+000
          8.400000000000e-001 1.600000000000e-001 0.000000000000e+000
          8.400000000000e-001 2.000000000000e-001 0.000000000000e+000
          9.000000000000e-001 0.000000000000e+000 0.000000000000e+000
          9.000000000000e-001 4.000000000000e-002 0.000000000000e+000
          9.000000000000e-001 8.000000000000e-002 0.000000000000e+000
          9.000000000000e-001 1.200000000000e-001 0.000000000000e+000
          9.000000000000e-001 1.600000000000e-001 0.000000000000e+000
          9.000000000000e-001 2.000000000000e-001 0.000000000000e+000
          9.600000000000e-001 0.000000000000e+000 0.000000000000e+000
          9.600000000000e-001 4.000000000000e-002 0.000000000000e+000
          9.600000000000e-001 8.000000000000e-002 0.000000000000e+000
          9.600000000000e-001 1.200000000000e-001 0.000000000000e+000
          9.600000000000e-001 1.600000000000e-001 0.000000000000e+000
          9.600000000000e-001 2.000000000000e-001 0.000000000000e+000
          1.020000000000e+000 0.000000000000e+000 0.000000000000e+000
          1.020000000000e+000 4.000000000000e-002 0.000000000000e+000
          1.020000000000e+000 8.000000000000e-002 0.000000000000e+000
          1.020000000000e+000 1.200000000000e-001 0.000000000000e+000
          1.020000000000e+000 1.600000000000e-001 0.000000000000e+000
          1.020000000000e+000 2.000000000000e-001 0.000000000000e+000
          1.080000000000e+000 0.000000000000e+000 0.000000000000e+000
          1.080000000000e+000 4.000000000000e-002 0.000000000000e+000
          1.080000000000e+000 8.000000000000e-002 0.000000000000e+000
          1.080000000000e+000 1.200000000000e-001 0.000000000000e+000
          1.080000000000e+000 1.600000000000e-001 0.000000000000e+000
          1.080000000000e+000 2.000000000000e-001 0.000000000000e+000
          1.140000000000e+000 0.000000000000e+000 0.000000000000e+000
          1.140000000000e+000 4.000000000000e-002 0.000000000000e+000
          1.140000000000e+000 8.000000000000e-002 0.000000000000e+000
          1.140000000000e+000 1.200000000000e-001 0.000000000000e+000
          1.140000000000e+000 1.600000000000e-001 0.000000000000e+000
          1.140000000000e+000 2.000000000000e-001 0.000000000000e+000
          1.200000000000e+000 0.000000000000e+000 0.000000000000e+000
          1.200000000000e+000 4.000000000000e-002 0.000000000000e+000
          1.200000000000e+000 8.000000000000e-002 0.000000000000e+000
          1.200000000000e+000 1.200000000000e-001 0.000000000000e+000
          1.200000000000e+000 1.600000000000e-001 0.000000000000e+000
          1.200000000000e+000 2.000000000000e-001 0.000000000000e+000
          1.260000000000e+000 0.000000000000e+000 0.000000000000e+000
          1.260000000000e+000 4.000000000000e-002 0.000000000000e+000
          1.260000000000e+000 8.000000000000e-002 0.000000000000e+000
          1.260000000000e+000 1.200000000000e-001 0.000000000000e+000
          1.260000000000e+000 1.600000000000e-001 0.000000000000e+000
          1.260000000000e+000 2.000000000000e-001 0.000000000000e+000
          1.320000000000e+000 0.000000000000e+000 0.000000000000e+000
          1.320000000000e+000 4.000000000000e-002 0.000000000000e+000
          1.320000000000e+000 8.000000000000e-002 0.000000000000e+000
          1.320000000000e+000 1.200000000000e-001 0.000000000000e+000
          1.320000000000e+000 1.600000000000e-001 0.000000000000e+000
          1.320000000000e+000 2.000000000000e-001 0.000000000000e+000
          1.380000000000e+000 0.000000000000e+000 0.000000000000e+000
[...]
      <PointData Scalars="MEAN_PRESSURE">
        <DataArray type="Float64" Name="MEAN_PRESSURE" format="ascii">
          1.013250000000e+005 1.013250000000e+005 1.013250000000e+005 1.013250000000e+005 1.013250000000e+005 1.013250000000e+005 1.013250000000e+005 1.013250000000e+005 1.013250000000e+005 1.013250000000e+005 1.013250000000e+005 1.013250000000e+005 1.013250000000e+005 1.013250000000e+005 1.013250000000e+005 1.013250000000e+005 1.013250000000e+005 1.013250000000e+005 1.013250000000e+005 1.013250000000e+005 1.013250000000e+005 1.013250000000e+005 1.013250000000e+005 1.013250000000e+005 1.013250000000e+005 1.013250000000e+005 1.013250000000e+005 1.013250000000e+005 1.013250000000e+005 1.013250000000e+005 1.013250000000e+005 1.013250000000e+005 1.013250000000e+005 1.013250000000e+005 1.013250000000e+005 1.013250000000e+005 1.013250000000e+005 1.013250000000e+005 1.013250000000e+005 1.013250000000e+005 1.013250000000e+005 1.013250000000e+005 1.013250000000e+005 1.013250000000e+005 1.013250000000e+005 1.013250000000e+005 1.013250000000e+005 1.013250000000e+005 1.013250000000e+005 1.013250000000e+005 1.013250000000e+005 1.013250000000e+005 1.013250000000e+005 1.013250000000e+005 1.013250000000e+005 1.013250000000e+005 1.013250000000e+005 1.013250000000e+005 1.013250000000e+005 1.013250000000e+005 1.013250000000e+005 1.013250000000e+005 1.013250000000e+005 1.013250000000e+005 1.013250000000e+005 1.013250000000e+005 1.013250000000e+005 1.013250000000e+005 1.013250000000e+005 1.013250000000e+005 1.013250000000e+005 1.013250000000e+005 1.013250000000e+005 1.013250000000e+005 1.013250000000e+005 1.013250000000e+005 1.013250000000e+005 1.013250000000e+005 1.013250000000e+005 1.013250000000e+005 1.013250000000e+005 1.013250000000e+005 1.013250000000e+005 1.013250000000e+005 1.013250000000e+005 1.013250000000e+005 1.013250000000e+005 1.013250000000e+005 1.013250000000e+005 1.013250000000e+005 1.013250000000e+005 1.013250000000e+005 1.013250000000e+005 1.013250000000e+005 1.013250000000e+005 1.013250000000e+005 1.013250000000e+005 1.013250000000e+005 1.013250000000e+005 1.013250000000e+005 1.013250000000e+005 1.013250000000e+005 1.013250000000e+005 1.013250000000e+005 1.013250000000e+005 1.013250000000e+005 1.013250000000e+005 1.013250000000e+005 1.013250000000e+005 1.013250000000e+005 1.013250000000e+005 1.013250000000e+005 1.013250000000e+005 1.013250000000e+005 1.013250000000e+005 1.013250000000e+005 1.013250000000e+005 1.013250000000e+005 1.013250000000e+005 1.013250000000e+005 1.013250000000e+005 1.013250000000e+005 1.013250000000e+005 1.013250000000e+005 1.013250000000e+005 1.013250000000e+005 1.013250000000e+005 1.013250000000e+005 1.013250000000e+005 1.013250000000e+005 1.013250000000e+005 1.013250000000e+005 1.013250000000e+005 1.013250000000e+005 1.013250000000e+005 1.013250000000e+005 1.013250000000e+005 1.013250000000e+005 1.013250000000e+005 1.013250000000e+005 1.013250000000e+005 1.013250000000e+005 1.013250000000e+005 1.013250000000e+005 1.013250000000e+005 1.013250000000e+005 1.013250000000e+005 1.013250000000e+005 1.013250000000e+005 1.013250000000e+005 1.013250000000e+005 1.013250000000e+005 1.013250000000e+005 1.013250000000e+005 1.013250000000e+005 1.013250000000e+005 1.013250000000e+005 1.013250000000e+005 1.013250000000e+005 1.013250000000e+005 1.013250000000e+005 1.013250000000e+005 1.013250000000e+005 1.013250000000e+005 1.013250000000e+005 1.013250000000e+005 1.013250000000e+005 1.013250000000e+005 1.013250000000e+005 1.013250000000e+005 1.013250000000e+005 1.013250000000e+005 1.013250000000e+005 1.013250000000e+005 1.013250000000e+005 1.013250000000e+005 1.013250000000e+005 1.013250000000e+005 1.013250000000e+005 1.013250000000e+005 1.013250000000e+005 1.013250000000e+005 1.013250000000e+005 1.013250000000e+005 1.013250000000e+005 1.013250000000e+005 1.013250000000e+005 1.013250000000e+005 1.013250000000e+005 1.013250000000e+005 1.013250000000e+005 1.013250000000e+005 1.013250000000e+005 1.013250000000e+005 1.013250000000e+005 1.013250000000e+005 1.013250000000e+005 1.013250000000e+005 1.013250000000e+005 1.013250000000e+005 1.013250000000e+005 1.013250000000e+005 1.013250000000e+005 1.013250000000e+005 1.013250000000e+005 1.013250000000e+005 1.013250000000e+005 1.013250000000e+005 1.013250000000e+005 1.013250000000e+005 1.013250000000e+005 1.013250000000e+005 1.013250000000e+005 1.013250000000e+005 1.013250000000e+005 1.013250000000e+005 1.013250000000e+005 1.013250000000e+005 1.013250000000e+005 1.013250000000e+005 1.013250000000e+005 1.013250000000e+005 1.013250000000e+005 1.013250000000e+005 1.013250000000e+005 1.013250000000e+005 1.013250000000e+005 1.013250000000e+005 1.013250000000e+005 1.013250000000e+005 1.013250000000e+005 1.013250000000e+005 1.013250000000e+005 1.013250000000e+005 1.013250000000e+005 1.013250000000e+005 1.013250000000e+005 1.013250000000e+005 1.013250000000e+005 1.013250000000e+005 1.013250000000e+005 1.013250000000e+005 1.013250000000e+005 1.013250000000e+005 1.013250000000e+005 1.013250000000e+005 
        </DataArray>
        <DataArray type="Float64" Name="TEMPERATURE" format="ascii">
          3.431500000000e+002 3.431500000000e+002 3.431500000000e+002 3.431500000000e+002 3.431500000000e+002 3.431500000000e+002 3.431500000000e+002 3.431500000000e+002 3.431500000000e+002 3.431500000000e+002 3.431500000000e+002 3.431500000000e+002 3.431500000000e+002 3.431500000000e+002 3.431500000000e+002 3.431500000000e+002 3.431500000000e+002 3.431500000000e+002 3.431500000000e+002 3.431500000000e+002 3.431500000000e+002 3.431500000000e+002 3.431500000000e+002 3.431500000000e+002 3.431500000000e+002 3.431500000000e+002 3.431500000000e+002 3.431500000000e+002 3.431500000000e+002 3.431500000000e+002 3.431500000000e+002 3.431500000000e+002 3.431500000000e+002 3.431500000000e+002 3.431500000000e+002 3.431500000000e+002 3.431500000000e+002 3.431500000000e+002 3.431500000000e+002 3.431500000000e+002 3.431500000000e+002 3.431500000000e+002 3.431500000000e+002 3.431500000000e+002 3.431500000000e+002 3.431500000000e+002 3.431500000000e+002 3.431500000000e+002 3.431500000000e+002 3.431500000000e+002 3.431500000000e+002 3.431500000000e+002 3.431500000000e+002 3.431500000000e+002 3.431500000000e+002 3.431500000000e+002 3.431500000000e+002 3.431500000000e+002 3.431500000000e+002 3.431500000000e+002 3.431500000000e+002 3.431500000000e+002 3.431500000000e+002 3.431500000000e+002 3.431500000000e+002 3.431500000000e+002 3.431500000000e+002 3.431500000000e+002 3.431500000000e+002 3.431500000000e+002 3.431500000000e+002 3.431500000000e+002 3.431500000000e+002 3.431500000000e+002 3.431500000000e+002 3.431500000000e+002 3.431500000000e+002 3.431500000000e+002 3.431500000000e+002 3.431500000000e+002 3.431500000000e+002 3.431500000000e+002 3.431500000000e+002 3.431500000000e+002 3.431500000000e+002 3.431500000000e+002 3.431500000000e+002 3.431500000000e+002 3.431500000000e+002 3.431500000000e+002 3.431500000000e+002 3.431500000000e+002 3.431500000000e+002 3.431500000000e+002 3.431500000000e+002 3.431500000000e+002 3.431500000000e+002 3.431500000000e+002 3.431500000000e+002 3.431500000000e+002 3.431500000000e+002 3.431500000000e+002 3.431500000000e+002 3.431500000000e+002 3.431500000000e+002 3.431500000000e+002 3.431500000000e+002 3.431500000000e+002 3.431500000000e+002 3.431500000000e+002 3.431500000000e+002 3.431500000000e+002 3.431500000000e+002 3.431500000000e+002 3.431500000000e+002 3.431500000000e+002 3.431500000000e+002 3.431500000000e+002 3.431500000000e+002 3.431500000000e+002 3.431500000000e+002 3.431500000000e+002 3.431500000000e+002 3.431500000000e+002 3.431500000000e+002 3.431500000000e+002 3.431500000000e+002 3.431500000000e+002 3.431500000000e+002 3.431500000000e+002 3.431500000000e+002 3.431500000000e+002 3.431500000000e+002 3.431500000000e+002 3.431500000000e+002 3.431500000000e+002 3.431500000000e+002 3.431500000000e+002 3.431500000000e+002 3.431500000000e+002 3.431500000000e+002 3.431500000000e+002 3.431500000000e+002 3.431500000000e+002 3.431500000000e+002 3.431500000000e+002 3.431500000000e+002 3.431500000000e+002 3.431500000000e+002 3.431500000000e+002 3.431500000000e+002 3.431500000000e+002 3.431500000000e+002 3.431500000000e+002 3.431500000000e+002 3.431500000000e+002 3.431500000000e+002 3.431500000000e+002 3.431500000000e+002 3.431500000000e+002 3.431500000000e+002 3.431500000000e+002 3.431500000000e+002 3.431500000000e+002 3.431500000000e+002 3.431500000000e+002 3.431500000000e+002 3.431500000000e+002 3.431500000000e+002 3.431500000000e+002 3.431500000000e+002 3.431500000000e+002 3.431500000000e+002 3.431500000000e+002 3.431500000000e+002 3.431500000000e+002 3.431500000000e+002 3.431500000000e+002 3.431500000000e+002 3.431500000000e+002 3.431500000000e+002 3.431500000000e+002 3.431500000000e+002 3.431500000000e+002 3.431500000000e+002 3.431500000000e+002 3.431500000000e+002 3.431500000000e+002 3.431500000000e+002 3.431500000000e+002 3.431500000000e+002 3.431500000000e+002 3.431500000000e+002 3.431500000000e+002 3.431500000000e+002 3.431500000000e+002 3.431500000000e+002 3.431500000000e+002 3.431500000000e+002 3.431500000000e+002 3.431500000000e+002 3.431500000000e+002 3.431500000000e+002 3.431500000000e+002 3.431500000000e+002 3.431500000000e+002 3.431500000000e+002 3.431500000000e+002 3.431500000000e+002 3.431500000000e+002 3.431500000000e+002 3.431500000000e+002 3.431500000000e+002 3.431500000000e+002 3.431500000000e+002 3.431500000000e+002 3.431500000000e+002 3.431500000000e+002 3.431500000000e+002 3.431500000000e+002 3.431500000000e+002 3.431500000000e+002 3.431500000000e+002 3.431500000000e+002 3.431500000000e+002 3.431500000000e+002 3.431500000000e+002 3.431500000000e+002 3.431500000000e+002 3.431500000000e+002 3.431500000000e+002 3.431500000000e+002 3.431500000000e+002 3.431500000000e+002 3.431500000000e+002 3.431500000000e+002 3.431500000000e+002 3.431500000000e+002 3.431500000000e+002 3.431500000000e+002 3.431500000000e+002 3.431500000000e+002 3.431500000000e+002 3.431500000000e+002 3.431500000000e+002 3.431500000000e+002 
        </DataArray>
        <DataArray type="Float64" Name="TOTAL_MASS_DENSITY" format="ascii">
          7.199780000000e-003 7.199780000000e-003 7.199780000000e-003 7.199780000000e-003 7.199780000000e-003 7.199780000000e-003 7.199780000000e-003 7.199780000000e-003 7.199780000000e-003 7.199780000000e-003 7.199780000000e-003 7.199780000000e-003 7.199780000000e-003 7.199780000000e-003 7.199780000000e-003 7.199780000000e-003 7.199780000000e-003 7.199780000000e-003 7.199780000000e-003 7.199780000000e-003 7.199780000000e-003 7.199780000000e-003 7.199780000000e-003 7.199780000000e-003 7.199780000000e-003 7.199780000000e-003 7.199780000000e-003 7.199780000000e-003 7.199780000000e-003 7.199780000000e-003 7.199780000000e-003 7.199780000000e-003 7.199780000000e-003 7.199780000000e-003 7.199780000000e-003 7.199780000000e-003 7.199780000000e-003 7.199780000000e-003 7.199780000000e-003 7.199780000000e-003 7.199780000000e-003 7.199780000000e-003 7.199780000000e-003 7.199780000000e-003 7.199780000000e-003 7.199780000000e-003 7.199780000000e-003 7.199780000000e-003 7.199780000000e-003 7.199780000000e-003 7.199780000000e-003 7.199780000000e-003 7.199780000000e-003 7.199780000000e-003 7.199780000000e-003 7.199780000000e-003 7.199780000000e-003 7.199780000000e-003 7.199780000000e-003 7.199780000000e-003 7.199780000000e-003 7.199780000000e-003 7.199780000000e-003 7.199780000000e-003 7.199780000000e-003 7.199780000000e-003 7.199780000000e-003 7.199780000000e-003 7.199780000000e-003 7.199780000000e-003 7.199780000000e-003 7.199780000000e-003 7.199780000000e-003 7.199780000000e-003 7.199780000000e-003 7.199780000000e-003 7.199780000000e-003 7.199780000000e-003 7.199780000000e-003 7.199780000000e-003 7.199780000000e-003 7.199780000000e-003 7.199780000000e-003 7.199780000000e-003 7.199780000000e-003 7.199780000000e-003 7.199780000000e-003 7.199780000000e-003 7.199780000000e-003 7.199780000000e-003 7.199780000000e-003 7.199780000000e-003 7.199780000000e-003 7.199780000000e-003 7.199780000000e-003 7.199780000000e-003 7.199780000000e-003 7.199780000000e-003 7.199780000000e-003 7.199780000000e-003 7.199780000000e-003 7.199780000000e-003 7.199780000000e-003 7.199780000000e-003 7.199780000000e-003 7.199780000000e-003 7.199780000000e-003 7.199780000000e-003 7.199780000000e-003 7.199780000000e-003 7.199780000000e-003 7.199780000000e-003 7.199780000000e-003 7.199780000000e-003 7.199780000000e-003 7.199780000000e-003 7.199780000000e-003 7.199780000000e-003 7.199780000000e-003 7.199780000000e-003 7.199780000000e-003 7.199780000000e-003 7.199780000000e-003 7.199780000000e-003 7.199780000000e-003 7.199780000000e-003 7.199780000000e-003 7.199780000000e-003 7.199780000000e-003 7.199780000000e-003 7.199780000000e-003 7.199780000000e-003 7.199780000000e-003 7.199780000000e-003 7.199780000000e-003 7.199780000000e-003 7.199780000000e-003 7.199780000000e-003 7.199780000000e-003 7.199780000000e-003 7.199780000000e-003 7.199780000000e-003 7.199780000000e-003 7.199780000000e-003 7.199780000000e-003 7.199780000000e-003 7.199780000000e-003 7.199780000000e-003 7.199780000000e-003 7.199780000000e-003 7.199780000000e-003 7.199780000000e-003 7.199780000000e-003 7.199780000000e-003 7.199780000000e-003 7.199780000000e-003 7.199780000000e-003 7.199780000000e-003 7.199780000000e-003 7.199780000000e-003 7.199780000000e-003 7.199780000000e-003 7.199780000000e-003 7.199780000000e-003 7.199780000000e-003 7.199780000000e-003 7.199780000000e-003 7.199780000000e-003 7.199780000000e-003 7.199780000000e-003 7.199780000000e-003 7.199780000000e-003 7.199780000000e-003 7.199780000000e-003 7.199780000000e-003 7.199780000000e-003 7.199780000000e-003 7.199780000000e-003 7.199780000000e-003 7.199780000000e-003 7.199780000000e-003 7.199780000000e-003 7.199780000000e-003 7.199780000000e-003 7.199780000000e-003 7.199780000000e-003 7.199780000000e-003 7.199780000000e-003 7.199780000000e-003 7.199780000000e-003 7.199780000000e-003 7.199780000000e-003 7.199780000000e-003 7.199780000000e-003 7.199780000000e-003 7.199780000000e-003 7.199780000000e-003 7.199780000000e-003 7.199780000000e-003 7.199780000000e-003 7.199780000000e-003 7.199780000000e-003 7.199780000000e-003 7.199780000000e-003 7.199780000000e-003 7.199780000000e-003 7.199780000000e-003 7.199780000000e-003 7.199780000000e-003 7.199780000000e-003 7.199780000000e-003 7.199780000000e-003 7.199780000000e-003 7.199780000000e-003 7.199780000000e-003 7.199780000000e-003 7.199780000000e-003 7.199780000000e-003 7.199780000000e-003 7.199780000000e-003 7.199780000000e-003 7.199780000000e-003 7.199780000000e-003 7.199780000000e-003 7.199780000000e-003 7.199780000000e-003 7.199780000000e-003 7.199780000000e-003 7.199780000000e-003 7.199780000000e-003 7.199780000000e-003 7.199780000000e-003 7.199780000000e-003 7.199780000000e-003 7.199780000000e-003 7.199780000000e-003 7.199780000000e-003 7.199780000000e-003 7.199780000000e-003 7.199780000000e-003 7.199780000000e-003 7.199780000000e-003 7.199780000000e-003 7.199780000000e-003 7.199780000000e-003 7.199780000000e-003 
        </DataArray>
      </PointData>
      <CellData>
        <DataArray type="Float64" Name="Saturation" format="ascii">
          0.000000000000e+000 0.000000000000e+000 0.000000000000e+000 0.000000000000e+000 0.000000000000e+000 0.000000000000e+000 0.000000000000e+000 0.000000000000e+000 0.000000000000e+000 0.000000000000e+000 0.000000000000e+000 0.000000000000e+000 0.000000000000e+000 0.000000000000e+000 0.000000000000e+000 0.000000000000e+000 0.000000000000e+000 0.000000000000e+000 0.000000000000e+000 0.000000000000e+000 0.000000000000e+000 0.000000000000e+000 0.000000000000e+000 0.000000000000e+000 0.000000000000e+000 0.000000000000e+000 0.000000000000e+000 0.000000000000e+000 0.000000000000e+000 0.000000000000e+000 0.000000000000e+000 0.000000000000e+000 0.000000000000e+000 0.000000000000e+000 0.000000000000e+000 0.000000000000e+000 0.000000000000e+000 0.000000000000e+000 0.000000000000e+000 0.000000000000e+000 0.000000000000e+000 0.000000000000e+000 0.000000000000e+000 0.000000000000e+000 0.000000000000e+000 0.000000000000e+000 0.000000000000e+000 0.000000000000e+000 0.000000000000e+000 0.000000000000e+000 0.000000000000e+000 0.000000000000e+000 0.000000000000e+000 0.000000000000e+000 0.000000000000e+000 0.000000000000e+000 0.000000000000e+000 0.000000000000e+000 0.000000000000e+000 0.000000000000e+000 0.000000000000e+000 0.000000000000e+000 0.000000000000e+000 0.000000000000e+000 0.000000000000e+000 0.000000000000e+000 0.000000000000e+000 0.000000000000e+000 0.000000000000e+000 0.000000000000e+000 0.000000000000e+000 0.000000000000e+000 0.000000000000e+000 0.000000000000e+000 0.000000000000e+000 0.000000000000e+000 0.000000000000e+000 0.000000000000e+000 0.000000000000e+000 0.000000000000e+000 0.000000000000e+000 0.000000000000e+000 0.000000000000e+000 0.000000000000e+000 0.000000000000e+000 0.000000000000e+000 0.000000000000e+000 0.000000000000e+000 0.000000000000e+000 0.000000000000e+000 0.000000000000e+000 0.000000000000e+000 0.000000000000e+000 0.000000000000e+000 0.000000000000e+000 0.000000000000e+000 0.000000000000e+000 0.000000000000e+000 0.000000000000e+000 0.000000000000e+000 0.000000000000e+000 0.000000000000e+000 0.000000000000e+000 0.000000000000e+000 0.000000000000e+000 0.000000000000e+000 0.000000000000e+000 0.000000000000e+000 0.000000000000e+000 0.000000000000e+000 0.000000000000e+000 0.000000000000e+000 0.000000000000e+000 0.000000000000e+000 0.000000000000e+000 0.000000000000e+000 0.000000000000e+000 0.000000000000e+000 0.000000000000e+000 0.000000000000e+000 0.000000000000e+000 0.000000000000e+000 0.000000000000e+000 0.000000000000e+000 0.000000000000e+000 0.000000000000e+000 0.000000000000e+000 0.000000000000e+000 0.000000000000e+000 0.000000000000e+000 0.000000000000e+000 0.000000000000e+000 0.000000000000e+000 0.000000000000e+000 0.000000000000e+000 0.000000000000e+000 0.000000000000e+000 0.000000000000e+000 0.000000000000e+000 0.000000000000e+000 0.000000000000e+000 0.000000000000e+000 0.000000000000e+000 0.000000000000e+000 0.000000000000e+000 0.000000000000e+000 0.000000000000e+000 0.000000000000e+000 0.000000000000e+000 0.000000000000e+000 0.000000000000e+000 0.000000000000e+000 0.000000000000e+000 0.000000000000e+000 0.000000000000e+000 0.000000000000e+000 0.000000000000e+000 0.000000000000e+000 0.000000000000e+000 0.000000000000e+000 0.000000000000e+000 0.000000000000e+000 0.000000000000e+000 0.000000000000e+000 0.000000000000e+000 0.000000000000e+000 0.000000000000e+000 0.000000000000e+000 0.000000000000e+000 0.000000000000e+000 0.000000000000e+000 0.000000000000e+000 0.000000000000e+000 0.000000000000e+000 0.000000000000e+000 0.000000000000e+000 0.000000000000e+000 0.000000000000e+000 0.000000000000e+000 0.000000000000e+000 0.000000000000e+000 0.000000000000e+000 0.000000000000e+000 0.000000000000e+000 0.000000000000e+000 0.000000000000e+000 0.000000000000e+000 0.000000000000e+000 0.000000000000e+000 0.000000000000e+000 0.000000000000e+000 0.000000000000e+000 0.000000000000e+000 0.000000000000e+000 0.000000000000e+000 0.000000000000e+000 0.000000000000e+000 0.000000000000e+000 0.000000000000e+000 0.000000000000e+000 
        </DataArray>
        <DataArray type="Int32" Name="MatGroup" format="ascii">
          0 0 0 0 0 0 0 0 0 0 0 0 0 0 0 0 0 0 0 0 0 0 0 0 0 0 0 0 0 0 0 0 0 0 0 0 0 0 0 0 0 0 0 0 0 0 0 0 0 0 0 0 0 0 0 0 0 0 0 0 0 0 0 0 0 0 0 0 0 0 0 0 0 0 0 0 0 0 0 0 0 0 0 0 0 0 0 0 0 0 0 0 0 0 0 0 0 0 0 0 0 0 0 0 0 0 0 0 0 0 0 0 0 0 0 0 0 0 0 0 0 0 0 0 0 0 0 0 0 0 0 0 0 0 0 0 0 0 0 0 0 0 0 0 0 0 0 0 0 0 0 0 0 0 0 0 0 0 0 0 0 0 0 0 0 0 0 0 0 0 0 0 0 0 0 0 0 0 0 0 0 0 0 0 0 0 0 0 0 0 0 0 0 0 0 0 0 0 0 0 
        </DataArray>
      </CellData>
    </Piece>
  </UnstructuredGrid>
</VTKFile>
