<?xml version="1.0"?>
<VTKFile type="UnstructuredGrid" version="0.1" byte_order="LittleEndian">
  <UnstructuredGrid>
    <Piece NumberOfPoints="8241" NumberOfCells="8000">
      <Points>
        <DataArray type="Float64" NumberOfComponents="3" format="ascii">
          0.000000000000e+000 0.000000000000e+000 0.000000000000e+000
          2.500000000000e-002 0.000000000000e+000 0.000000000000e+000
          5.000000000000e-002 0.000000000000e+000 0.000000000000e+000
          7.500000000000e-002 0.000000000000e+000 0.000000000000e+000
          1.000000000000e-001 0.000000000000e+000 0.000000000000e+000
          1.250000000000e-001 0.000000000000e+000 0.000000000000e+000
          1.500000000000e-001 0.000000000000e+000 0.000000000000e+000
          1.750000000000e-001 0.000000000000e+000 0.000000000000e+000
          2.000000000000e-001 0.000000000000e+000 0.000000000000e+000
          2.250000000000e-001 0.000000000000e+000 0.000000000000e+000
          2.500000000000e-001 0.000000000000e+000 0.000000000000e+000
          2.750000000000e-001 0.000000000000e+000 0.000000000000e+000
          3.000000000000e-001 0.000000000000e+000 0.000000000000e+000
          3.250000000000e-001 0.000000000000e+000 0.000000000000e+000
          3.500000000000e-001 0.000000000000e+000 0.000000000000e+000
          3.750000000000e-001 0.000000000000e+000 0.000000000000e+000
          4.000000000000e-001 0.000000000000e+000 0.000000000000e+000
          4.250000000000e-001 0.000000000000e+000 0.000000000000e+000
          4.500000000000e-001 0.000000000000e+000 0.000000000000e+000
          4.750000000000e-001 0.000000000000e+000 0.000000000000e+000
          5.000000000000e-001 0.000000000000e+000 0.000000000000e+000
          5.250000000000e-001 0.000000000000e+000 0.000000000000e+000
          5.500000000000e-001 0.000000000000e+000 0.000000000000e+000
          5.750000000000e-001 0.000000000000e+000 0.000000000000e+000
          6.000000000000e-001 0.000000000000e+000 0.000000000000e+000
          6.250000000000e-001 0.000000000000e+000 0.000000000000e+000
          6.500000000000e-001 0.000000000000e+000 0.000000000000e+000
          6.750000000000e-001 0.000000000000e+000 0.000000000000e+000
          7.000000000000e-001 0.000000000000e+000 0.000000000000e+000
          7.250000000000e-001 0.000000000000e+000 0.000000000000e+000
          7.500000000000e-001 0.000000000000e+000 0.000000000000e+000
          7.750000000000e-001 0.000000000000e+000 0.000000000000e+000
          8.000000000000e-001 0.000000000000e+000 0.000000000000e+000
          8.250000000000e-001 0.000000000000e+000 0.000000000000e+000
          8.500000000000e-001 0.000000000000e+000 0.000000000000e+000
          8.750000000000e-001 0.000000000000e+000 0.000000000000e+000
          9.000000000000e-001 0.000000000000e+000 0.000000000000e+000
          9.250000000000e-001 0.000000000000e+000 0.000000000000e+000
          9.500000000000e-001 0.000000000000e+000 0.000000000000e+000
          9.750000000000e-001 0.000000000000e+000 0.000000000000e+000
          1.000000000000e+000 0.000000000000e+000 0.000000000000e+000
          1.025000000000e+000 0.000000000000e+000 0.000000000000e+000
          1.050000000000e+000 0.000000000000e+000 0.000000000000e+000
          1.075000000000e+000 0.000000000000e+000 0.000000000000e+000
          1.100000000000e+000 0.000000000000e+000 0.000000000000e+000
          1.125000000000e+000 0.000000000000e+000 0.000000000000e+000
          1.150000000000e+000 0.000000000000e+000 0.000000000000e+000
          1.175000000000e+000 0.000000000000e+000 0.000000000000e+000
          1.200000000000e+000 0.000000000000e+000 0.000000000000e+000
          1.225000000000e+000 0.000000000000e+000 0.000000000000e+000
          1.250000000000e+000 0.000000000000e+000 0.000000000000e+000
          1.275000000000e+000 0.000000000000e+000 0.000000000000e+000
          1.300000000000e+000 0.000000000000e+000 0.000000000000e+000
          1.325000000000e+000 0.000000000000e+000 0.000000000000e+000
          1.350000000000e+000 0.000000000000e+000 0.000000000000e+000
          1.375000000000e+000 0.000000000000e+000 0.000000000000e+000
          1.400000000000e+000 0.000000000000e+000 0.000000000000e+000
          1.425000000000e+000 0.000000000000e+000 0.000000000000e+000
          1.450000000000e+000 0.000000000000e+000 0.000000000000e+000
          1.475000000000e+000 0.000000000000e+000 0.000000000000e+000
          1.500000000000e+000 0.000000000000e+000 0.000000000000e+000
          1.525000000000e+000 0.000000000000e+000 0.000000000000e+000
          1.550000000000e+000 0.000000000000e+000 0.000000000000e+000
          1.575000000000e+000 0.000000000000e+000 0.000000000000e+000
          1.600000000000e+000 0.000000000000e+000 0.000000000000e+000
          1.625000000000e+000 0.000000000000e+000 0.000000000000e+000
          1.650000000000e+000 0.000000000000e+000 0.000000000000e+000
          1.675000000000e+000 0.000000000000e+000 0.000000000000e+000
          1.700000000000e+000 0.000000000000e+000 0.000000000000e+000
          1.725000000000e+000 0.000000000000e+000 0.000000000000e+000
          1.750000000000e+000 0.000000000000e+000 0.000000000000e+000
          1.775000000000e+000 0.000000000000e+000 0.000000000000e+000
          1.800000000000e+000 0.000000000000e+000 0.000000000000e+000
          1.825000000000e+000 0.000000000000e+000 0.000000000000e+000
          1.850000000000e+000 0.000000000000e+000 0.000000000000e+000
          1.875000000000e+000 0.000000000000e+000 0.000000000000e+000
          1.900000000000e+000 0.000000000000e+000 0.000000000000e+000
          1.925000000000e+000 0.000000000000e+000 0.000000000000e+000
          1.950000000000e+000 0.000000000000e+000 0.000000000000e+000
          1.975000000000e+000 0.000000000000e+000 0.000000000000e+000
          2.000000000000e+000 0.000000000000e+000 0.000000000000e+000
          2.025000000000e+000 0.000000000000e+000 0.000000000000e+000
          2.050000000000e+000 0.000000000000e+000 0.000000000000e+000
          2.075000000000e+000 0.000000000000e+000 0.000000000000e+000
          2.100000000000e+000 0.000000000000e+000 0.000000000000e+000
          2.125000000000e+000 0.000000000000e+000 0.000000000000e+000
          2.150000000000e+000 0.000000000000e+000 0.000000000000e+000
          2.175000000000e+000 0.000000000000e+000 0.000000000000e+000
          2.200000000000e+000 0.000000000000e+000 0.000000000000e+000
          2.225000000000e+000 0.000000000000e+000 0.000000000000e+000
          2.250000000000e+000 0.000000000000e+000 0.000000000000e+000
          2.275000000000e+000 0.000000000000e+000 0.000000000000e+000
          2.300000000000e+000 0.000000000000e+000 0.000000000000e+000
          2.325000000000e+000 0.000000000000e+000 0.000000000000e+000
          2.350000000000e+000 0.000000000000e+000 0.000000000000e+000
          2.375000000000e+000 0.000000000000e+000 0.000000000000e+000
          2.400000000000e+000 0.000000000000e+000 0.000000000000e+000
          2.425000000000e+000 0.000000000000e+000 0.000000000000e+000
          2.450000000000e+000 0.000000000000e+000 0.000000000000e+000
          2.475000000000e+000 0.000000000000e+000 0.000000000000e+000
          2.500000000000e+000 0.000000000000e+000 0.000000000000e+000
          2.525000000000e+000 0.000000000000e+000 0.000000000000e+000
          2.550000000000e+000 0.000000000000e+000 0.000000000000e+000
          2.575000000000e+000 0.000000000000e+000 0.000000000000e+000
          2.600000000000e+000 0.000000000000e+000 0.000000000000e+000
          2.625000000000e+000 0.000000000000e+000 0.000000000000e+000
          2.650000000000e+000 0.000000000000e+000 0.000000000000e+000
          2.675000000000e+000 0.000000000000e+000 0.000000000000e+000
          2.700000000000e+000 0.000000000000e+000 0.000000000000e+000
          2.725000000000e+000 0.000000000000e+000 0.000000000000e+000
          2.750000000000e+000 0.000000000000e+000 0.000000000000e+000
          2.775000000000e+000 0.000000000000e+000 0.000000000000e+000
          2.800000000000e+000 0.000000000000e+000 0.000000000000e+000
          2.825000000000e+000 0.000000000000e+000 0.000000000000e+000
          2.850000000000e+000 0.000000000000e+000 0.000000000000e+000
          2.875000000000e+000 0.000000000000e+000 0.000000000000e+000
          2.900000000000e+000 0.000000000000e+000 0.000000000000e+000
          2.925000000000e+000 0.000000000000e+000 0.000000000000e+000
          2.950000000000e+000 0.000000000000e+000 0.000000000000e+000
          2.975000000000e+000 0.000000000000e+000 0.000000000000e+000
          3.000000000000e+000 0.000000000000e+000 0.000000000000e+000
          3.025000000000e+000 0.000000000000e+000 0.000000000000e+000
          3.050000000000e+000 0.000000000000e+000 0.000000000000e+000
          3.075000000000e+000 0.000000000000e+000 0.000000000000e+000
          3.100000000000e+000 0.000000000000e+000 0.000000000000e+000
          3.125000000000e+000 0.000000000000e+000 0.000000000000e+000
          3.150000000000e+000 0.000000000000e+000 0.000000000000e+000
          3.175000000000e+000 0.000000000000e+000 0.000000000000e+000
          3.200000000000e+000 0.000000000000e+000 0.000000000000e+000
          3.225000000000e+000 0.000000000000e+000 0.000000000000e+000
          3.250000000000e+000 0.000000000000e+000 0.000000000000e+000
          3.275000000000e+000 0.000000000000e+000 0.000000000000e+000
          3.300000000000e+000 0.000000000000e+000 0.000000000000e+000
          3.325000000000e+000 0.000000000000e+000 0.000000000000e+000
          3.350000000000e+000 0.000000000000e+000 0.000000000000e+000
          3.375000000000e+000 0.000000000000e+000 0.000000000000e+000
          3.400000000000e+000 0.000000000000e+000 0.000000000000e+000
          3.425000000000e+000 0.000000000000e+000 0.000000000000e+000
          3.450000000000e+000 0.000000000000e+000 0.000000000000e+000
[...]
      <PointData Scalars="HEAD">
        <DataArray type="Float64" Name="HEAD" format="ascii">
          1.000000000000e+000 1.000000000000e+000 1.000000000000e+000 1.000000000000e+000 1.000000000000e+000 1.000000000000e+000 1.000000000000e+000 1.000000000000e+000 1.000000000000e+000 1.000000000000e+000 1.000000000000e+000 1.000000000000e+000 1.000000000000e+000 1.000000000000e+000 1.000000000000e+000 1.000000000000e+000 1.000000000000e+000 1.000000000000e+000 1.000000000000e+000 1.000000000000e+000 1.000000000000e+000 1.000000000000e+000 1.000000000000e+000 1.000000000000e+000 1.000000000000e+000 1.000000000000e+000 1.000000000000e+000 1.000000000000e+000 1.000000000000e+000 1.000000000000e+000 1.000000000000e+000 1.000000000000e+000 1.000000000000e+000 1.000000000000e+000 1.000000000000e+000 1.000000000000e+000 1.000000000000e+000 1.000000000000e+000 1.000000000000e+000 1.000000000000e+000 1.000000000000e+000 1.000000000000e+000 1.000000000000e+000 1.000000000000e+000 1.000000000000e+000 1.000000000000e+000 1.000000000000e+000 1.000000000000e+000 1.000000000000e+000 1.000000000000e+000 1.000000000000e+000 1.000000000000e+000 1.000000000000e+000 1.000000000000e+000 1.000000000000e+000 1.000000000000e+000 1.000000000000e+000 1.000000000000e+000 1.000000000000e+000 1.000000000000e+000 1.000000000000e+000 1.000000000000e+000 1.000000000000e+000 1.000000000000e+000 1.000000000000e+000 1.000000000000e+000 1.000000000000e+000 1.000000000000e+000 1.000000000000e+000 1.000000000000e+000 1.000000000000e+000 1.000000000000e+000 1.000000000000e+000 1.000000000000e+000 1.000000000000e+000 1.000000000000e+000 1.000000000000e+000 1.000000000000e+000 1.000000000000e+000 1.000000000000e+000 1.000000000000e+000 1.000000000000e+000 1.000000000000e+000 1.000000000000e+000 1.000000000000e+000 1.000000000000e+000 1.000000000000e+000 1.000000000000e+000 1.000000000000e+000 1.000000000000e+000 1.000000000000e+000 1.000000000000e+000 1.000000000000e+000 1.000000000000e+000 1.000000000000e+000 1.000000000000e+000 1.000000000000e+000 1.000000000000e+000 1.000000000000e+000 1.000000000000e+000 1.000000000000e+000 1.000000000000e+000 1.000000000000e+000 1.000000000000e+000 1.000000000000e+000 1.000000000000e+000 1.000000000000e+000 1.000000000000e+000 1.000000000000e+000 1.000000000000e+000 1.000000000000e+000 1.000000000000e+000 1.000000000000e+000 1.000000000000e+000 1.000000000000e+000 1.000000000000e+000 1.000000000000e+000 1.000000000000e+000 1.000000000000e+000 1.000000000000e+000 1.000000000000e+000 1.000000000000e+000 1.000000000000e+000 1.000000000000e+000 1.000000000000e+000 1.000000000000e+000 1.000000000000e+000 1.000000000000e+000 1.000000000000e+000 1.000000000000e+000 1.000000000000e+000 1.000000000000e+000 1.000000000000e+000 1.000000000000e+000 1.000000000000e+000 1.000000000000e+000 1.000000000000e+000 1.000000000000e+000 1.000000000000e+000 1.000000000000e+000 1.000000000000e+000 1.000000000000e+000 1.000000000000e+000 1.000000000000e+000 1.000000000000e+000 1.000000000000e+000 1.000000000000e+000 1.000000000000e+000 1.000000000000e+000 1.000000000000e+000 1.000000000000e+000 1.000000000000e+000 1.000000000000e+000 1.000000000000e+000 1.000000000000e+000 1.000000000000e+000 1.000000000000e+000 1.000000000000e+000 1.000000000000e+000 1.000000000000e+000 1.000000000000e+000 1.000000000000e+000 1.000000000000e+000 1.000000000000e+000 1.000000000000e+000 1.000000000000e+000 1.000000000000e+000 1.000000000000e+000 1.000000000000e+000 1.000000000000e+000 1.000000000000e+000 1.000000000000e+000 1.000000000000e+000 1.000000000000e+000 1.000000000000e+000 1.000000000000e+000 1.000000000000e+000 1.000000000000e+000 1.000000000000e+000 1.000000000000e+000 1.000000000000e+000 1.000000000000e+000 1.000000000000e+000 1.000000000000e+000 1.000000000000e+000 1.000000000000e+000 1.000000000000e+000 1.000000000000e+000 1.000000000000e+000 1.000000000000e+000 1.000000000000e+000 1.000000000000e+000 1.000000000000e+000 1.000000000000e+000 1.000000000000e+000 1.000000000000e+000 1.000000000000e+000 1.000000000000e+000 1.000000000000e+000 1.000000000000e+000 1.000000000000e+000 1.000000000000e+000 1.000000000000e+000 1.000000000000e+000 1.000000000000e+000 1.000000000000e+000 1.000000000000e+000 1.000000000000e+000 1.000000000000e+000 1.000000000000e+000 1.000000000000e+000 1.000000000000e+000 1.000000000000e+000 1.000000000000e+000 1.000000000000e+000 1.000000000000e+000 1.000000000000e+000 1.000000000000e+000 1.000000000000e+000 1.000000000000e+000 1.000000000000e+000 1.000000000000e+000 1.000000000000e+000 1.000000000000e+000 1.000000000000e+000 1.000000000000e+000 1.000000000000e+000 1.000000000000e+000 1.000000000000e+000 1.000000000000e+000 1.000000000000e+000 1.000000000000e+000 1.000000000000e+000 1.000000000000e+000 1.000000000000e+000 1.000000000000e+000 1.000000000000e+000 1.000000000000e+000 1.000000000000e+000 1.000000000000e+000 1.000000000000e+000 1.000000000000e+000 1.000000000000e+000 1.000000000000e+000 1.000000000000e+000 1.000000000000e+000 1.000000000000e+000 1.000000000000e+000 1.000000000000e+000 1.000000000000e+000 1.000000000000e+000 1.000000000000e+000 1.000000000000e+000 1.000000000000e+000 1.000000000000e+000 1.000000000000e+000 1.000000000000e+000 1.000000000000e+000 1.000000000000e+000 1.000000000000e+000 1.000000000000e+000 1.000000000000e+000 1.000000000000e+000 1.000000000000e+000 1.000000000000e+000 1.000000000000e+000 1.000000000000e+000 1.000000000000e+000 1.000000000000e+000 1.000000000000e+000 1.000000000000e+000 1.000000000000e+000 1.000000000000e+000 1.000000000000e+000 1.000000000000e+000 1.000000000000e+000 1.000000000000e+000 1.000000000000e+000 1.000000000000e+000 1.000000000000e+000 1.000000000000e+000 1.000000000000e+000 1.000000000000e+000 1.000000000000e+000 1.000000000000e+000 1.000000000000e+000 1.000000000000e+000 1.000000000000e+000 1.000000000000e+000 1.000000000000e+000 1.000000000000e+000 1.000000000000e+000 1.000000000000e+000 1.000000000000e+000 1.000000000000e+000 1.000000000000e+000 1.000000000000e+000 1.000000000000e+000 1.000000000000e+000 1.000000000000e+000 1.000000000000e+000 1.000000000000e+000 1.000000000000e+000 1.000000000000e+000 1.000000000000e+000 1.000000000000e+000 1.000000000000e+000 1.000000000000e+000 1.000000000000e+000 1.000000000000e+000 1.000000000000e+000 1.000000000000e+000 1.000000000000e+000 1.000000000000e+000 1.000000000000e+000 1.000000000000e+000 1.000000000000e+000 1.000000000000e+000 1.000000000000e+000 1.000000000000e+000 1.000000000000e+000 1.000000000000e+000 1.000000000000e+000 1.000000000000e+000 1.000000000000e+000 1.000000000000e+000 1.000000000000e+000 1.000000000000e+000 1.000000000000e+000 1.000000000000e+000 1.000000000000e+000 1.000000000000e+000 1.000000000000e+000 1.000000000000e+000 1.000000000000e+000 1.000000000000e+000 1.000000000000e+000 1.000000000000e+000 1.000000000000e+000 1.000000000000e+000 1.000000000000e+000 1.000000000000e+000 1.000000000000e+000 1.000000000000e+000 1.000000000000e+000 1.000000000000e+000 1.000000000000e+000 1.000000000000e+000 1.000000000000e+000 1.000000000000e+000 1.000000000000e+000 1.000000000000e+000 1.000000000000e+000 1.000000000000e+000 1.000000000000e+000 1.000000000000e+000 1.000000000000e+000 1.000000000000e+000 1.000000000000e+000 1.000000000000e+000 1.000000000000e+000 1.000000000000e+000 1.000000000000e+000 1.000000000000e+000 1.000000000000e+000 1.000000000000e+000 1.000000000000e+000 1.000000000000e+000 1.000000000000e+000 1.000000000000e+000 1.000000000000e+000 1.000000000000e+000 1.000000000000e+000 1.000000000000e+000 1.000000000000e+000 1.000000000000e+000 1.000000000000e+000 1.000000000000e+000 1.000000000000e+000 1.000000000000e+000 1.000000000000e+000 1.000000000000e+000 1.000000000000e+000 1.000000000000e+000 1.000000000000e+000 1.000000000000e+000 1.000000000000e+000 1.000000000000e+000 1.000000000000e+000 1.000000000000e+000 1.000000000000e+000 1.000000000000e+000 1.000000000000e+000 1.000000000000e+000 1.000000000000e+000 1.000000000000e+000 1.000000000000e+000 1.000000000000e+000 1.000000000000e+000 1.000000000000e+000 1.000000000000e+000 1.000000000000e+000 1.000000000000e+000 1.000000000000e+000 1.000000000000e+000 1.000000000000e+000 1.000000000000e+000 1.000000000000e+000 1.000000000000e+000 1.000000000000e+000 1.000000000000e+000 1.000000000000e+000 1.000000000000e+000 1.000000000000e+000 1.000000000000e+000 1.000000000000e+000 1.000000000000e+000 1.000000000000e+000 1.000000000000e+000 1.000000000000e+000 1.000000000000e+000 1.000000000000e+000 1.000000000000e+000 1.000000000000e+000 1.000000000000e+000 1.000000000000e+000 1.000000000000e+000 1.000000000000e+000 1.000000000000e+000 1.000000000000e+000 1.000000000000e+000 1.000000000000e+000 1.000000000000e+000 1.000000000000e+000 1.000000000000e+000 1.000000000000e+000 1.000000000000e+000 1.000000000000e+000 1.000000000000e+000 1.000000000000e+000 1.000000000000e+000 1.000000000000e+000 1.000000000000e+000 1.000000000000e+000 1.000000000000e+000 1.000000000000e+000 1.000000000000e+000 1.000000000000e+000 1.000000000000e+000 1.000000000000e+000 1.000000000000e+000 1.000000000000e+000 1.000000000000e+000 1.000000000000e+000 1.000000000000e+000 1.000000000000e+000 1.000000000000e+000 1.000000000000e+000 1.000000000000e+000 1.000000000000e+000 1.000000000000e+000 1.000000000000e+000 1.000000000000e+000 1.000000000000e+000 1.000000000000e+000 1.000000000000e+000 1.000000000000e+000 1.000000000000e+000 1.000000000000e+000 1.000000000000e+000 1.000000000000e+000 1.000000000000e+000 1.000000000000e+000 1.000000000000e+000 1.000000000000e+000 1.000000000000e+000 1.000000000000e+000 1.000000000000e+000 1.000000000000e+000 1.000000000000e+000 1.000000000000e+000 1.000000000000e+000 1.000000000000e+000 1.000000000000e+000 1.000000000000e+000 1.000000000000e+000 1.000000000000e+000 1.000000000000e+000 1.000000000000e+000 1.000000000000e+000 1.000000000000e+000 1.000000000000e+000 1.000000000000e+000 1.000000000000e+000 1.000000000000e+000 1.000000000000e+000 1.000000000000e+000 1.000000000000e+000 1.000000000000e+000 1.000000000000e+000 1.000000000000e+000 1.000000000000e+000 1.000000000000e+000 1.000000000000e+000 1.000000000000e+000 1.000000000000e+000 1.000000000000e+000 1.000000000000e+000 1.000000000000e+000 1.000000000000e+000 1.000000000000e+000 1.000000000000e+000 1.000000000000e+000 1.000000000000e+000 1.000000000000e+000 1.000000000000e+000 1.000000000000e+000 1.000000000000e+000 1.000000000000e+000 1.000000000000e+000 1.000000000000e+000 1.000000000000e+000 1.000000000000e+000 1.000000000000e+000 1.000000000000e+000 1.000000000000e+000 1.000000000000e+000 1.000000000000e+000 1.000000000000e+000 1.000000000000e+000 1.000000000000e+000 1.000000000000e+000 1.000000000000e+000 1.000000000000e+000 1.000000000000e+000 1.000000000000e+000 1.000000000000e+000 1.000000000000e+000 1.000000000000e+000 1.000000000000e+000 1.000000000000e+000 1.000000000000e+000 1.000000000000e+000 1.000000000000e+000 1.000000000000e+000 1.000000000000e+000 1.000000000000e+000 1.000000000000e+000 1.000000000000e+000 1.000000000000e+000 1.000000000000e+000 1.000000000000e+000 1.000000000000e+000 1.000000000000e+000 1.000000000000e+000 1.000000000000e+000 1.000000000000e+000 1.000000000000e+000 1.000000000000e+000 1.000000000000e+000 1.000000000000e+000 1.000000000000e+000 1.000000000000e+000 1.000000000000e+000 1.000000000000e+000 1.000000000000e+000 1.000000000000e+000 1.000000000000e+000 1.000000000000e+000 1.000000000000e+000 1.000000000000e+000 1.000000000000e+000 1.000000000000e+000 1.000000000000e+000 1.000000000000e+000 1.000000000000e+000 1.000000000000e+000 1.000000000000e+000 1.000000000000e+000 1.000000000000e+000 1.000000000000e+000 1.000000000000e+000 1.000000000000e+000 1.000000000000e+000 1.000000000000e+000 1.000000000000e+000 1.000000000000e+000 1.000000000000e+000 1.000000000000e+000 1.000000000000e+000 1.000000000000e+000 1.000000000000e+000 1.000000000000e+000 1.000000000000e+000 1.000000000000e+000 1.000000000000e+000 1.000000000000e+000 1.000000000000e+000 1.000000000000e+000 1.000000000000e+000 1.000000000000e+000 1.000000000000e+000 1.000000000000e+000 1.000000000000e+000 1.000000000000e+000 1.000000000000e+000 1.000000000000e+000 1.000000000000e+000 1.000000000000e+000 1.000000000000e+000 1.000000000000e+000 1.000000000000e+000 1.000000000000e+000 1.000000000000e+000 1.000000000000e+000 1.000000000000e+000 1.000000000000e+000 1.000000000000e+000 1.000000000000e+000 1.000000000000e+000 1.000000000000e+000 1.000000000000e+000 1.000000000000e+000 1.000000000000e+000 1.000000000000e+000 1.000000000000e+000 1.000000000000e+000 1.000000000000e+000 1.000000000000e+000 1.000000000000e+000 1.000000000000e+000 1.000000000000e+000 1.000000000000e+000 1.000000000000e+000 1.000000000000e+000 1.000000000000e+000 1.000000000000e+000 1.000000000000e+000 1.000000000000e+000 1.000000000000e+000 1.000000000000e+000 1.000000000000e+000 1.000000000000e+000 1.000000000000e+000 1.000000000000e+000 1.000000000000e+000 1.000000000000e+000 1.000000000000e+000 1.000000000000e+000 1.000000000000e+000 1.000000000000e+000 1.000000000000e+000 1.000000000000e+000 1.000000000000e+000 1.000000000000e+000 1.000000000000e+000 1.000000000000e+000 1.000000000000e+000 1.000000000000e+000 1.000000000000e+000 1.000000000000e+000 1.000000000000e+000 1.000000000000e+000 1.000000000000e+000 1.000000000000e+000 1.000000000000e+000 1.000000000000e+000 1.000000000000e+000 1.000000000000e+000 1.000000000000e+000 1.000000000000e+000 1.000000000000e+000 1.000000000000e+000 1.000000000000e+000 1.000000000000e+000 1.000000000000e+000 1.000000000000e+000 1.000000000000e+000 1.000000000000e+000 1.000000000000e+000 1.000000000000e+000 1.000000000000e+000 1.000000000000e+000 1.000000000000e+000 1.000000000000e+000 1.000000000000e+000 1.000000000000e+000 1.000000000000e+000 1.000000000000e+000 1.000000000000e+000 1.000000000000e+000 1.000000000000e+000 1.000000000000e+000 1.000000000000e+000 1.000000000000e+000 1.000000000000e+000 1.000000000000e+000 1.000000000000e+000 1.000000000000e+000 1.000000000000e+000 1.000000000000e+000 1.000000000000e+000 1.000000000000e+000 1.000000000000e+000 1.000000000000e+000 1.000000000000e+000 1.000000000000e+000 1.000000000000e+000 1.000000000000e+000 1.000000000000e+000 1.000000000000e+000 1.000000000000e+000 1.000000000000e+000 1.000000000000e+000 1.000000000000e+000 1.000000000000e+000 1.000000000000e+000 1.000000000000e+000 1.000000000000e+000 1.000000000000e+000 1.000000000000e+000 1.000000000000e+000 1.000000000000e+000 1.000000000000e+000 1.000000000000e+000 1.000000000000e+000 1.000000000000e+000 1.000000000000e+000 1.000000000000e+000 1.000000000000e+000 1.000000000000e+000 1.000000000000e+000 1.000000000000e+000 1.000000000000e+000 1.000000000000e+000 1.000000000000e+000 1.000000000000e+000 1.000000000000e+000 1.000000000000e+000 1.000000000000e+000 1.000000000000e+000 1.000000000000e+000 1.000000000000e+000 1.000000000000e+000 1.000000000000e+000 1.000000000000e+000 1.000000000000e+000 1.000000000000e+000 1.000000000000e+000 1.000000000000e+000 1.000000000000e+000 1.000000000000e+000 1.000000000000e+000 1.000000000000e+000 1.000000000000e+000 1.000000000000e+000 1.000000000000e+000 1.000000000000e+000 1.000000000000e+000 1.000000000000e+000 1.000000000000e+000 1.000000000000e+000 1.000000000000e+000 1.000000000000e+000 1.000000000000e+000 1.000000000000e+000 1.000000000000e+000 1.000000000000e+000 1.000000000000e+000 1.000000000000e+000 1.000000000000e+000 1.000000000000e+000 1.000000000000e+000 1.000000000000e+000 1.000000000000e+000 1.000000000000e+000 1.000000000000e+000 1.000000000000e+000 1.000000000000e+000 1.000000000000e+000 1.000000000000e+000 1.000000000000e+000 1.000000000000e+000 1.000000000000e+000 1.000000000000e+000 1.000000000000e+000 1.000000000000e+000 1.000000000000e+000 1.000000000000e+000 1.000000000000e+000 1.000000000000e+000 1.000000000000e+000 1.000000000000e+000 1.000000000000e+000 1.000000000000e+000 1.000000000000e+000 1.000000000000e+000 1.000000000000e+000 1.000000000000e+000 1.000000000000e+000 1.000000000000e+000 1.000000000000e+000 1.000000000000e+000 1.000000000000e+000 1.000000000000e+000 1.000000000000e+000 1.000000000000e+000 1.000000000000e+000 1.000000000000e+000 1.000000000000e+000 1.000000000000e+000 1.000000000000e+000 1.000000000000e+000 1.000000000000e+000 1.000000000000e+000 1.000000000000e+000 1.000000000000e+000 1.000000000000e+000 1.000000000000e+000 1.000000000000e+000 1.000000000000e+000 1.000000000000e+000 1.000000000000e+000 1.000000000000e+000 1.000000000000e+000 1.000000000000e+000 1.000000000000e+000 1.000000000000e+000 1.000000000000e+000 1.000000000000e+000 1.000000000000e+000 1.000000000000e+000 1.000000000000e+000 1.000000000000e+000 1.000000000000e+000 1.000000000000e+000 1.000000000000e+000 1.000000000000e+000 1.000000000000e+000 1.000000000000e+000 1.000000000000e+000 1.000000000000e+000 1.000000000000e+000 1.000000000000e+000 1.000000000000e+000 1.000000000000e+000 1.000000000000e+000 1.000000000000e+000 1.000000000000e+000 1.000000000000e+000 1.000000000000e+000 1.000000000000e+000 1.000000000000e+000 1.000000000000e+000 1.000000000000e+000 1.000000000000e+000 1.000000000000e+000 1.000000000000e+000 1.000000000000e+000 1.000000000000e+000 1.000000000000e+000 1.000000000000e+000 1.000000000000e+000 1.000000000000e+000 1.000000000000e+000 1.000000000000e+000 1.000000000000e+000 1.000000000000e+000 1.000000000000e+000 1.000000000000e+000 1.000000000000e+000 1.000000000000e+000 1.000000000000e+000 1.000000000000e+000 1.000000000000e+000 1.000000000000e+000 1.000000000000e+000 1.000000000000e+000 1.000000000000e+000 1.000000000000e+000 1.000000000000e+000 1.000000000000e+000 1.000000000000e+000 1.000000000000e+000 1.000000000000e+000 1.000000000000e+000 1.000000000000e+000 1.000000000000e+000 1.000000000000e+000 1.000000000000e+000 1.000000000000e+000 1.000000000000e+000 1.000000000000e+000 1.000000000000e+000 1.000000000000e+000 1.000000000000e+000 1.000000000000e+000 1.000000000000e+000 1.000000000000e+000 1.000000000000e+000 1.000000000000e+000 1.000000000000e+000 1.000000000000e+000 1.000000000000e+000 1.000000000000e+000 1.000000000000e+000 1.000000000000e+000 1.000000000000e+000 1.000000000000e+000 1.000000000000e+000 1.000000000000e+000 1.000000000000e+000 1.000000000000e+000 1.000000000000e+000 1.000000000000e+000 1.000000000000e+000 1.000000000000e+000 1.000000000000e+000 1.000000000000e+000 1.000000000000e+000 1.000000000000e+000 1.000000000000e+000 1.000000000000e+000 1.000000000000e+000 1.000000000000e+000 1.000000000000e+000 1.000000000000e+000 1.000000000000e+000 1.000000000000e+000 1.000000000000e+000 1.000000000000e+000 1.000000000000e+000 1.000000000000e+000 1.000000000000e+000 1.000000000000e+000 1.000000000000e+000 1.000000000000e+000 1.000000000000e+000 1.000000000000e+000 1.000000000000e+000 1.000000000000e+000 1.000000000000e+000 1.000000000000e+000 1.000000000000e+000 1.000000000000e+000 1.000000000000e+000 1.000000000000e+000 1.000000000000e+000 1.000000000000e+000 1.000000000000e+000 1.000000000000e+000 1.000000000000e+000 1.000000000000e+000 1.000000000000e+000 1.000000000000e+000 1.000000000000e+000 1.000000000000e+000 1.000000000000e+000 1.000000000000e+000 1.000000000000e+000 1.000000000000e+000 1.000000000000e+000 1.000000000000e+000 1.000000000000e+000 1.000000000000e+000 1.000000000000e+000 1.000000000000e+000 1.000000000000e+000 1.000000000000e+000 1.000000000000e+000 1.000000000000e+000 1.000000000000e+000 1.000000000000e+000 1.000000000000e+000 1.000000000000e+000 1.000000000000e+000 1.000000000000e+000 1.000000000000e+000 1.000000000000e+000 1.000000000000e+000 1.000000000000e+000 1.000000000000e+000 1.000000000000e+000 1.000000000000e+000 1.000000000000e+000 1.000000000000e+000 1.000000000000e+000 1.000000000000e+000 1.000000000000e+000 1.000000000000e+000 1.000000000000e+000 1.000000000000e+000 1.000000000000e+000 1.000000000000e+000 1.000000000000e