<?xml version="1.0"?>
<VTKFile type="UnstructuredGrid" version="0.1" byte_order="LittleEndian">
  <UnstructuredGrid>
    <Piece NumberOfPoints="325" NumberOfCells="288">
      <Points>
        <DataArray type="Float64" NumberOfComponents="3" format="ascii">
          0.000000000000e+000 0.000000000000e+000 0.000000000000e+000
          2.000000000000e+001 0.000000000000e+000 0.000000000000e+000
          2.000000000000e+001 1.000000000000e+001 0.000000000000e+000
          0.000000000000e+000 1.000000000000e+001 0.000000000000e+000
          8.333333333333e-001 0.000000000000e+000 0.000000000000e+000
          1.666666666667e+000 0.000000000000e+000 0.000000000000e+000
          2.500000000000e+000 0.000000000000e+000 0.000000000000e+000
          3.333333333333e+000 0.000000000000e+000 0.000000000000e+000
          4.166666666667e+000 0.000000000000e+000 0.000000000000e+000
          5.000000000000e+000 0.000000000000e+000 0.000000000000e+000
          5.833333333333e+000 0.000000000000e+000 0.000000000000e+000
          6.666666666667e+000 0.000000000000e+000 0.000000000000e+000
          7.500000000000e+000 0.000000000000e+000 0.000000000000e+000
          8.333333333333e+000 0.000000000000e+000 0.000000000000e+000
          9.166666666667e+000 0.000000000000e+000 0.000000000000e+000
          1.000000000000e+001 0.000000000000e+000 0.000000000000e+000
          1.083333333333e+001 0.000000000000e+000 0.000000000000e+000
          1.166666666667e+001 0.000000000000e+000 0.000000000000e+000
          1.250000000000e+001 0.000000000000e+000 0.000000000000e+000
          1.333333333333e+001 0.000000000000e+000 0.000000000000e+000
          1.416666666667e+001 0.000000000000e+000 0.000000000000e+000
          1.500000000000e+001 0.000000000000e+000 0.000000000000e+000
          1.583333333333e+001 0.000000000000e+000 0.000000000000e+000
          1.666666666667e+001 0.000000000000e+000 0.000000000000e+000
          1.750000000000e+001 0.000000000000e+000 0.000000000000e+000
          1.833333333333e+001 0.000000000000e+000 0.000000000000e+000
          1.916666666667e+001 0.000000000000e+000 0.000000000000e+000
          0.000000000000e+000 8.333333333333e-001 0.000000000000e+000
          8.333333333333e-001 8.333333333333e-001 0.000000000000e+000
          1.666666666667e+000 8.333333333333e-001 0.000000000000e+000
          2.500000000000e+000 8.333333333333e-001 0.000000000000e+000
          3.333333333333e+000 8.333333333333e-001 0.000000000000e+000
          4.166666666667e+000 8.333333333333e-001 0.000000000000e+000
          5.000000000000e+000 8.333333333333e-001 0.000000000000e+000
          5.833333333333e+000 8.333333333333e-001 0.000000000000e+000
          6.666666666667e+000 8.333333333333e-001 0.000000000000e+000
          7.500000000000e+000 8.333333333333e-001 0.000000000000e+000
          8.333333333333e+000 8.333333333333e-001 0.000000000000e+000
          9.166666666667e+000 8.333333333333e-001 0.000000000000e+000
          1.000000000000e+001 8.333333333333e-001 0.000000000000e+000
          1.083333333333e+001 8.333333333333e-001 0.000000000000e+000
          1.166666666667e+001 8.333333333333e-001 0.000000000000e+000
          1.250000000000e+001 8.333333333333e-001 0.000000000000e+000
          1.333333333333e+001 8.333333333333e-001 0.000000000000e+000
          1.416666666667e+001 8.333333333333e-001 0.000000000000e+000
          1.500000000000e+001 8.333333333333e-001 0.000000000000e+000
          1.583333333333e+001 8.333333333333e-001 0.000000000000e+000
          1.666666666667e+001 8.333333333333e-001 0.000000000000e+000
          1.750000000000e+001 8.333333333333e-001 0.000000000000e+000
          1.833333333333e+001 8.333333333333e-001 0.000000000000e+000
          1.916666666667e+001 8.333333333333e-001 0.000000000000e+000
          2.000000000000e+001 8.333333333333e-001 0.000000000000e+000
          0.000000000000e+000 1.666666666667e+000 0.000000000000e+000
          8.333333333333e-001 1.666666666667e+000 0.000000000000e+000
          1.666666666667e+000 1.666666666667e+000 0.000000000000e+000
          2.500000000000e+000 1.666666666667e+000 0.000000000000e+000
          3.333333333333e+000 1.666666666667e+000 0.000000000000e+000
          4.166666666667e+000 1.666666666667e+000 0.000000000000e+000
          5.000000000000e+000 1.666666666667e+000 0.000000000000e+000
          5.833333333333e+000 1.666666666667e+000 0.000000000000e+000
          6.666666666667e+000 1.666666666667e+000 0.000000000000e+000
          7.500000000000e+000 1.666666666667e+000 0.000000000000e+000
          8.333333333333e+000 1.666666666667e+000 0.000000000000e+000
          9.166666666667e+000 1.666666666667e+000 0.000000000000e+000
          1.000000000000e+001 1.666666666667e+000 0.000000000000e+000
          1.083333333333e+001 1.666666666667e+000 0.000000000000e+000
          1.166666666667e+001 1.666666666667e+000 0.000000000000e+000
          1.250000000000e+001 1.666666666667e+000 0.000000000000e+000
          1.333333333333e+001 1.666666666667e+000 0.000000000000e+000
          1.416666666667e+001 1.666666666667e+000 0.000000000000e+000
          1.500000000000e+001 1.666666666667e+000 0.000000000000e+000
          1.583333333333e+001 1.666666666667e+000 0.000000000000e+000
          1.666666666667e+001 1.666666666667e+000 0.000000000000e+000
          1.750000000000e+001 1.666666666667e+000 0.000000000000e+000
          1.833333333333e+001 1.666666666667e+000 0.000000000000e+000
          1.916666666667e+001 1.666666666667e+000 0.000000000000e+000
          2.000000000000e+001 1.666666666667e+000 0.000000000000e+000
          0.000000000000e+000 2.500000000000e+000 0.000000000000e+000
          8.333333333333e-001 2.500000000000e+000 0.000000000000e+000
          1.666666666667e+000 2.500000000000e+000 0.000000000000e+000
          2.500000000000e+000 2.500000000000e+000 0.000000000000e+000
          3.333333333333e+000 2.500000000000e+000 0.000000000000e+000
          4.166666666667e+000 2.500000000000e+000 0.000000000000e+000
          5.000000000000e+000 2.500000000000e+000 0.000000000000e+000
          5.833333333333e+000 2.500000000000e+000 0.000000000000e+000
          6.666666666667e+000 2.500000000000e+000 0.000000000000e+000
          7.500000000000e+000 2.500000000000e+000 0.000000000000e+000
          8.333333333333e+000 2.500000000000e+000 0.000000000000e+000
          9.166666666667e+000 2.500000000000e+000 0.000000000000e+000
          1.000000000000e+001 2.500000000000e+000 0.000000000000e+000
          1.083333333333e+001 2.500000000000e+000 0.000000000000e+000
          1.166666666667e+001 2.500000000000e+000 0.000000000000e+000
          1.250000000000e+001 2.500000000000e+000 0.000000000000e+000
          1.333333333333e+001 2.500000000000e+000 0.000000000000e+000
          1.416666666667e+001 2.500000000000e+000 0.000000000000e+000
          1.500000000000e+001 2.500000000000e+000 0.000000000000e+000
          1.583333333333e+001 2.500000000000e+000 0.000000000000e+000
          1.666666666667e+001 2.500000000000e+000 0.000000000000e+000
          1.750000000000e+001 2.500000000000e+000 0.000000000000e+000
          1.833333333333e+001 2.500000000000e+000 0.000000000000e+000
          1.916666666667e+001 2.500000000000e+000 0.000000000000e+000
          2.000000000000e+001 2.500000000000e+000 0.000000000000e+000
          0.000000000000e+000 3.333333333333e+000 0.000000000000e+000
          8.333333333333e-001 3.333333333333e+000 0.000000000000e+000
          1.666666666667e+000 3.333333333333e+000 0.000000000000e+000
          2.500000000000e+000 3.333333333333e+000 0.000000000000e+000
          3.333333333333e+000 3.333333333333e+000 0.000000000000e+000
          4.166666666667e+000 3.333333333333e+000 0.000000000000e+000
          5.000000000000e+000 3.333333333333e+000 0.000000000000e+000
          5.833333333333e+000 3.333333333333e+000 0.000000000000e+000
          6.666666666667e+000 3.333333333333e+000 0.000000000000e+000
          7.500000000000e+000 3.333333333333e+000 0.000000000000e+000
          8.333333333333e+000 3.333333333333e+000 0.000000000000e+000
          9.166666666667e+000 3.333333333333e+000 0.000000000000e+000
          1.000000000000e+001 3.333333333333e+000 0.000000000000e+000
          1.083333333333e+001 3.333333333333e+000 0.000000000000e+000
          1.166666666667e+001 3.333333333333e+000 0.000000000000e+000
          1.250000000000e+001 3.333333333333e+000 0.000000000000e+000
          1.333333333333e+001 3.333333333333e+000 0.000000000000e+000
          1.416666666667e+001 3.333333333333e+000 0.000000000000e+000
          1.500000000000e+001 3.333333333333e+000 0.000000000000e+000
          1.583333333333e+001 3.333333333333e+000 0.000000000000e+000
          1.666666666667e+001 3.333333333333e+000 0.000000000000e+000
          1.750000000000e+001 3.333333333333e+000 0.000000000000e+000
          1.833333333333e+001 3.333333333333e+000 0.000000000000e+000
          1.916666666667e+001 3.333333333333e+000 0.000000000000e+000
          2.000000000000e+001 3.333333333333e+000 0.000000000000e+000
          0.000000000000e+000 4.166666666667e+000 0.000000000000e+000
          8.333333333333e-001 4.166666666667e+000 0.000000000000e+000
          1.666666666667e+000 4.166666666667e+000 0.000000000000e+000
          2.500000000000e+000 4.166666666667e+000 0.000000000000e+000
          3.333333333333e+000 4.166666666667e+000 0.000000000000e+000
          4.166666666667e+000 4.166666666667e+000 0.000000000000e+000
          5.000000000000e+000 4.166666666667e+000 0.000000000000e+000
          5.833333333333e+000 4.166666666667e+000 0.000000000000e+000
          6.666666666667e+000 4.166666666667e+000 0.000000000000e+000
          7.500000000000e+000 4.166666666667e+000 0.000000000000e+000
          8.333333333333e+000 4.166666666667e+000 0.000000000000e+000
          9.166666666667e+000 4.166666666667e+000 0.000000000000e+000
[...]
      <PointData Scalars="HEAD">
        <DataArray type="Float64" Name="HEAD" format="ascii">
          6.790470052192e-002 0.000000000000e+000 0.000000000000e+000 6.790470052192e-002 6.154258939605e-002 5.575119780091e-002 5.047681885925e-002 4.567054024705e-002 4.128779060158e-002 3.728792618581e-002 3.363385397578e-002 3.029168767588e-002 2.723043347189e-002 2.442170260767e-002 2.183944812003e-002 1.945972329038e-002 1.726045957316e-002 1.522126194163e-002 1.332321975314e-002 1.154873137998e-002 9.881340979438e-003 8.305585889366e-003 6.806853234127e-003 5.371244411043e-003 3.985446200734e-003 2.636607306043e-003 1.312219174623e-003 6.790470052192e-002 6.154258939605e-002 5.575119780091e-002 5.047681885925e-002 4.567054024705e-002 4.128779060158e-002 3.728792618581e-002 3.363385397578e-002 3.029168767588e-002 2.723043347189e-002 2.442170260767e-002 2.183944812003e-002 1.945972329038e-002 1.726045957316e-002 1.522126194163e-002 1.332321975314e-002 1.154873137998e-002 9.881340979438e-003 8.305585889366e-003 6.806853234126e-003 5.371244411041e-003 3.985446200733e-003 2.636607306043e-003 1.312219174623e-003 0.000000000000e+000 6.790470052192e-002 6.154258939605e-002 5.575119780091e-002 5.047681885925e-002 4.567054024705e-002 4.128779060158e-002 3.728792618581e-002 3.363385397578e-002 3.029168767588e-002 2.723043347189e-002 2.442170260767e-002 2.183944812003e-002 1.945972329038e-002 1.726045957316e-002 1.522126194163e-002 1.332321975314e-002 1.154873137998e-002 9.881340979438e-003 8.305585889366e-003 6.806853234126e-003 5.371244411041e-003 3.985446200733e-003 2.636607306043e-003 1.312219174623e-003 0.000000000000e+000 6.790470052192e-002 6.154258939605e-002 5.575119780091e-002 5.047681885925e-002 4.567054024705e-002 4.128779060158e-002 3.728792618581e-002 3.363385397578e-002 3.029168767588e-002 2.723043347189e-002 2.442170260767e-002 2.183944812003e-002 1.945972329038e-002 1.726045957316e-002 1.522126194163e-002 1.332321975314e-002 1.154873137998e-002 9.881340979438e-003 8.305585889366e-003 6.806853234125e-003 5.371244411040e-003 3.985446200732e-003 2.636607306042e-003 1.312219174623e-003 0.000000000000e+000 6.790470052192e-002 6.154258939605e-002 5.575119780091e-002 5.047681885925e-002 4.567054024705e-002 4.128779060158e-002 3.728792618581e-002 3.363385397578e-002 3.029168767588e-002 2.723043347189e-002 2.442170260767e-002 2.183944812003e-002 1.945972329038e-002 1.726045957316e-002 1.522126194163e-002 1.332321975314e-002 1.154873137998e-002 9.881340979438e-003 8.305585889366e-003 6.806853234126e-003 5.371244411041e-003 3.985446200733e-003 2.636607306043e-003 1.312219174623e-003 0.000000000000e+000 6.790470052192e-002 6.154258939605e-002 5.575119780091e-002 5.047681885925e-002 4.567054024705e-002 4.128779060158e-002 3.728792618581e-002 3.363385397578e-002 3.029168767588e-002 2.723043347189e-002 2.442170260767e-002 2.183944812003e-002 1.945972329038e-002 1.726045957316e-002 1.522126194163e-002 1.332321975314e-002 1.154873137998e-002 9.881340979438e-003 8.305585889366e-003 6.806853234126e-003 5.371244411042e-003 3.985446200734e-003 2.636607306043e-003 1.312219174623e-003 0.000000000000e+000 6.790470052192e-002 6.154258939605e-002 5.575119780091e-002 5.047681885925e-002 4.567054024705e-002 4.128779060158e-002 3.728792618581e-002 3.363385397578e-002 3.029168767588e-002 2.723043347189e-002 2.442170260767e-002 2.183944812003e-002 1.945972329038e-002 1.726045957316e-002 1.522126194163e-002 1.332321975314e-002 1.154873137998e-002 9.881340979438e-003 8.305585889366e-003 6.806853234126e-003 5.371244411043e-003 3.985446200735e-003 2.636607306043e-003 1.312219174623e-003 0.000000000000e+000 6.790470052192e-002 6.154258939605e-002 5.575119780091e-002 5.047681885925e-002 4.567054024705e-002 4.128779060158e-002 3.728792618581e-002 3.363385397578e-002 3.029168767588e-002 2.723043347189e-002 2.442170260767e-002 2.183944812003e-002 1.945972329038e-002 1.726045957316e-002 1.522126194163e-002 1.332321975314e-002 1.154873137998e-002 9.881340979438e-003 8.305585889366e-003 6.806853234126e-003 5.371244411042e-003 3.985446200734e-003 2.636607306043e-003 1.312219174623e-003 0.000000000000e+000 6.790470052192e-002 6.154258939605e-002 5.575119780091e-002 5.047681885925e-002 4.567054024705e-002 4.128779060158e-002 3.728792618581e-002 3.363385397578e-002 3.029168767588e-002 2.723043347189e-002 2.442170260767e-002 2.183944812003e-002 1.945972329038e-002 1.726045957316e-002 1.522126194163e-002 1.332321975314e-002 1.154873137998e-002 9.881340979438e-003 8.305585889366e-003 6.806853234126e-003 5.371244411041e-003 3.985446200733e-003 2.636607306043e-003 1.312219174623e-003 0.000000000000e+000 6.790470052192e-002 6.154258939605e-002 5.575119780091e-002 5.047681885925e-002 4.567054024705e-002 4.128779060158e-002 3.728792618581e-002 3.363385397578e-002 3.029168767588e-002 2.723043347189e-002 2.442170260767e-002 2.183944812003e-002 1.945972329038e-002 1.726045957316e-002 1.522126194163e-002 1.332321975314e-002 1.154873137998e-002 9.881340979438e-003 8.305585889366e-003 6.806853234125e-003 5.371244411040e-003 3.985446200732e-003 2.636607306042e-003 1.312219174623e-003 0.000000000000e+000 6.790470052192e-002 6.154258939605e-002 5.575119780091e-002 5.047681885925e-002 4.567054024705e-002 4.128779060158e-002 3.728792618581e-002 3.363385397578e-002 3.029168767588e-002 2.723043347189e-002 2.442170260767e-002 2.183944812003e-002 1.945972329038e-002 1.726045957316e-002 1.522126194163e-002 1.332321975314e-002 1.154873137998e-002 9.881340979438e-003 8.305585889366e-003 6.806853234126e-003 5.371244411041e-003 3.985446200733e-003 2.636607306043e-003 1.312219174623e-003 0.000000000000e+000 6.790470052192e-002 6.154258939605e-002 5.575119780091e-002 5.047681885925e-002 4.567054024705e-002 4.128779060158e-002 3.728792618581e-002 3.363385397578e-002 3.029168767588e-002 2.723043347189e-002 2.442170260767e-002 2.183944812003e-002 1.945972329038e-002 1.726045957316e-002 1.522126194163e-002 1.332321975314e-002 1.154873137998e-002 9.881340979438e-003 8.305585889366e-003 6.806853234126e-003 5.371244411041e-003 3.985446200733e-003 2.636607306043e-003 1.312219174623e-003 0.000000000000e+000 6.154258939605e-002 5.575119780091e-002 5.047681885925e-002 4.567054024705e-002 4.128779060158e-002 3.728792618581e-002 3.363385397578e-002 3.029168767588e-002 2.723043347189e-002 2.442170260767e-002 2.183944812003e-002 1.945972329038e-002 1.726045957316e-002 1.522126194163e-002 1.332321975314e-002 1.154873137998e-002 9.881340979438e-003 8.305585889366e-003 6.806853234127e-003 5.371244411043e-003 3.985446200734e-003 2.636607306043e-003 1.312219174623e-003 
        </DataArray>
      </PointData>
      <CellData>
        <DataArray type="Float64" Name="VELOCITY" NumberOfComponents="3" format="ascii">
          1.908633337759e-004 -1.376936759057e-017 0 1.737417478543e-004 -1.333568672157e-017 0 1.582313682497e-004 8.836247705757e-018 0 1.441883583662e-004 1.707618421665e-017 0 1.314824893639e-004 2.179246366696e-017 0 1.199959324732e-004 2.640032290002e-017 0 1.096221663009e-004 1.821459649776e-017 0 1.002649889970e-004 1.507041019755e-017 0 9.183762611966e-005 3.767602549387e-018 0 8.426192592651e-005 1.772670552014e-017 0 7.746763462922e-005 4.431676380034e-017 0 7.139174488950e-005 3.062871137272e-018 0 6.597791151655e-005 -3.095397202446e-017 0 6.117592894598e-005 4.919567357653e-018 0 5.694126565466e-005 1.825525407922e-017 0 5.323465119473e-005 3.496552006266e-018 0 5.002171201637e-005 -1.626303258728e-019 0 4.727265270216e-005 -1.272582299955e-017 0 4.496197965719e-005 -9.080193194566e-019 0 4.306826469252e-005 3.745918505937e-017 0 4.157394630926e-005 3.822490284369e-017 0 4.046516684073e-005 8.944667923005e-018 0 3.973164394259e-005 2.497053128506e-018 0 3.936657523869e-005 5.244404492925e-018 0 1.908633337759e-004 3.794707603699e-018 0 1.737417478543e-004 -1.301042606983e-018 0 1.582313682497e-004 6.451002926289e-018 0 1.441883583662e-004 7.101524229780e-018 0 1.314824893639e-004 8.782037597133e-018 0 1.199959324732e-004 1.338989683020e-017 0 1.096221663009e-004 1.382357769919e-017 0 1.002649889970e-004 1.105886215935e-017 0 9.183762611966e-005 1.848564704088e-017 0 8.426192592654e-005 3.263448539181e-017 0 7.746763462921e-005 2.404218317487e-017 0 7.139174488945e-005 8.185726402266e-018 0 6.597791151656e-005 7.670730370335e-018 0 6.117592894600e-005 5.475220971052e-018 0 5.694126565465e-005 7.846913223364e-018 0 5.323465119472e-005 1.196688147881e-017 0 5.002171201637e-005 6.993104012532e-018 0 4.727265270215e-005 3.008661028647e-018 0 4.496197965722e-005 5.163512846462e-018 0 4.306826469254e-005 1.532790821351e-017 0 4.157394630924e-005 2.053885490502e-017 0 4.046516684071e-005 1.040495272407e-017 0 3.973164394259e-005 -2.637660597750e-018 0 3.936657523869e-005 -4.265657922373e-018 0 1.908633337759e-004 7.589415207399e-019 0 1.737417478543e-004 2.065405138585e-017 0 1.582313682497e-004 1.225148454909e-017 0 1.441883583662e-004 4.987329993433e-018 0 1.314824893639e-004 3.794707603699e-019 0 1.199959324732e-004 5.041540102058e-018 0 1.096221663009e-004 1.132991270247e-017 0 1.002649889970e-004 1.355252715607e-017 0 9.183762611966e-005 1.032702569292e-017 0 8.426192592654e-005 2.710505431214e-018 0 7.746763462918e-005 -1.254964014652e-017 0 7.139174488946e-005 -1.192622389734e-017 0 6.597791151656e-005 6.152847328855e-018 0 6.117592894599e-005 -3.320369153237e-018 0 5.694126565466e-005 -1.906840570859e-017 0 5.323465119473e-005 -1.326792408579e-017 0 5.002171201637e-005 7.318364664277e-019 0 4.727265270216e-005 1.395910297075e-017 0 4.496197965721e-005 1.370160495479e-017 0 4.306826469255e-005 9.561307908607e-018 0 4.157394630924e-005 1.131636017532e-017 0 4.046516684070e-005 1.050320854595e-017 0 3.973164394258e-005 1.929541053845e-018 0 3.936657523869e-005 -3.201784540621e-018 0 1.908633337759e-004 1.409462824231e-017 0 1.737417478543e-004 -3.469446951954e-018 0 1.582313682497e-004 -1.566672139242e-017 0 1.441883583662e-004 -1.989510986511e-017 0 1.314824893639e-004 -2.217193442733e-017 0 1.199959324732e-004 -2.303929616532e-017 0 1.096221663009e-004 -1.729302465114e-017 0 1.002649889970e-004 -1.344410693882e-017 0 9.183762611966e-005 -1.431146867681e-017 0 8.426192592653e-005 -1.973247953924e-017 0 7.746763462918e-005 -1.227858960340e-017 0 7.139174488949e-005 6.586528197849e-018 0 6.597791151657e-005 1.580224666398e-017 0 6.117592894597e-005 1.225148454909e-017 0 5.694126565465e-005 3.482999479110e-018 0 5.323465119474e-005 -1.626303258728e-019 0 5.002171201638e-005 1.626303258728e-018 0 4.727265270216e-005 9.351243737687e-019 0 4.496197965720e-005 -9.147955830346e-018 0 4.306826469255e-005 -2.624446883773e-017 0 4.157394630924e-005 -3.342730823044e-017 0 4.046516684071e-005 -2.317482143688e-017 0 3.973164394258e-005 -9.169978686975e-018 0 3.936657523870e-005 -1.891001054745e-018 0 1.908633337759e-004 -9.757819552370e-019 0 1.737417478543e-004 -1.290200585258e-017 0 1.582313682497e-004 -9.757819552370e-018 0 1.441883583662e-004 5.963111948670e-019 0 1.314824893639e-004 5.692061405549e-018 0 1.199959324732e-004 -7.047314121156e-019 0 1.096221663009e-004 -3.198396408832e-018 0 1.002649889970e-004 -1.328147661295e-017 0 9.183762611965e-005 -3.599551212652e-017 0 8.426192592654e-005 -3.664603343001e-017 0 7.746763462920e-005 -1.596487698985e-017 0 7.139174488948e-005 -1.265806036377e-017 0 6.597791151657e-005 -1.851275209519e-017 0 6.117592894597e-005 -8.050201130705e-018 0 5.694126565464e-005 -6.234162491792e-018 0 5.323465119473e-005 -1.479935965443e-017 0 5.002171201638e-005 -1.729302465114e-017 0 4.727265270216e-005 -1.382357769919e-017 0 4.496197965720e-005 -2.276824562220e-018 0 4.306826469253e-005 -3.293264098925e-018 0 4.157394630924e-005 -1.326792408579e-017 0 4.046516684072e-005 -8.080694316806e-018 0 3.973164394259e-005 5.749659645962e-018 0 3.936657523869e-005 7.061290164785e-018 0 1.908633337759e-004 -2.602085213965e-017 0 1.737417478543e-004 -2.184667377558e-017 0 1.582313682497e-004 -1.962405932199e-017 0 1.441883583662e-004 -1.170938346284e-017 0 1.314824893639e-004 -7.643625316023e-018 0 1.199959324732e-004 -1.290200585258e-017 0 1.096221663010e-004 -1.463672932855e-017 0 1.002649889970e-004 -1.604619215279e-017 0 9.183762611964e-005 -2.415060339211e-017 0 8.426192592656e-005 -1.100465205073e-017 0 7.746763462922e-005 1.086912677917e-017 0 7.139174488947e-005 9.324138683375e-018 0 6.597791151658e-005 4.770489558936e-018 0 6.117592894599e-005 1.581579919113e-017 0 5.694126565463e-005 1.942077141465e-017 0 5.323465119473e-005 9.893344823930e-018 0 5.002171201637e-005 -1.870248747537e-018 0 4.727265270216e-005 -1.105886215935e-017 0 4.496197965721e-005 -1.366094737332e-017 0 4.306826469251e-005 -1.936656130602e-017 0 4.157394630924e-005 -2.553973742561e-017 0 4.046516684073e-005 -2.006112832277e-017 0 3.973164394261e-005 -6.606856988584e-018 0 3.936657523869e-005 1.021521734389e-018 0 1.908633337759e-004 2.547875105341e-017 0 1.737417478543e-004 2.114194236347e-017 0 1.582313682497e-004 1.951563910474e-017 0 1.441883583662e-004 1.127570259385e-017 0 1.314824893639e-004 7.264154555653e-018 0 1.199959324732e-004 1.338989683020e-017 0 1.096221663010e-004 1.501620008892e-017 0 1.002649889970e-004 1.599198204416e-017 0 9.183762611964e-005 2.396086801193e-017 0 8.426192592656e-005 1.084202172486e-017 0 7.746763462922e-005 -1.100465205073e-017 0 7.139174488947e-005 -9.513874063560e-018 0 6.597791151658e-005 -4.634964287376e-018 0 6.117592894599e-005 -1.573448402820e-017 0 5.694126565463e-005 -1.948853405043e-017 0 5.323465119473e-005 -1.001531756833e-017 0 5.002171201637e-005 1.816038638913e-018 0 4.727265270216e-005 1.114017732229e-017 0 4.496197965721e-005 1.370160495479e-017 0 4.306826469251e-005 1.948853405043e-017 0 4.157394630924e-005 2.564138137928e-017 0 4.046516684073e-005 2.018310106718e-017 0 3.973164394261e-005 6.716971271727e-018 0 3.936657523869e-005 -9.588412962919e-019 0 1.908633337759e-004 1.084202172486e-018 0 1.737417478543e-004 1.328147661295e-017 0 1.582313682497e-004 9.703609443745e-018 0 1.441883583662e-004 -1.084202172486e-019 0 1.314824893639e-004 -5.258380536555e-018 0 1.199959324732e-004 5.421010862428e-020 0 1.096221663009e-004 2.222614453595e-018 0 1.002649889970e-004 1.273937552670e-017 0 9.183762611965e-005 3.583288180065e-017 0 8.426192592654e-005 3.653761321276e-017 0 7.746763462920e-005 1.588356182691e-017 0 7.139174488948e-005 1.254964014652e-017 0 6.597791151657e-005 1.862117231244e-017 0 6.117592894597e-005 7.995991022081e-018 0 5.694126565464e-005 6.288372600416e-018 0 5.323465119473e-005 1.481291218158e-017 0 5.002171201638e-005 1.726591959683e-017 0 4.727265270216e-005 1.371515748194e-017 0 4.496197965720e-005 2.236166980751e-018 0 4.306826469253e-005 3.361026734705e-018 0 4.157394630924e-005 1.326114782221e-017 0 4.046516684072e-005 8.128128161852e-018 0 3.973164394259e-005 -5.700531735021e-018 0 3.936657523869e-005 -7.024444231580e-018 0 1.908633337759e-004 -1.463672932855e-017 0 1.737417478543e-004 3.632077277826e-018 0 1.582313682497e-004 1.626303258728e-017 0 1.441883583662e-004 2.005774019098e-017 0 1.314824893639e-004 2.195509399283e-017 0 1.199959324732e-004 2.325613659981e-017 0 1.096221663009e-004 1.750986508564e-017 0 1.002649889970e-004 1.382357769919e-017 0 9.183762611966e-005 1.455541416562e-017 0 8.426192592653e-005 1.994931997373e-017 0 7.746763462918e-005 1.246832498358e-017 0 7.139174488949e-005 -6.478107980601e-018 0 6.597791151657e-005 -1.574803655535e-017 0 6.117592894597e-005 -1.234635223918e-017 0 5.694126565465e-005 -3.496552006266e-018 0 5.323465119474e-005 1.761828530289e-019 0 5.002171201638e-005 -1.707618421665e-018 0 4.727265270216e-005 -9.351243737687e-019 0 4.496197965720e-005 9.175060884659e-018 0 4.306826469255e-005 2.628512641920e-017 0 4.157394630924e-005 3.340020317613e-017 0 4.046516684071e-005 2.324597220445e-017 0 3.973164394258e-005 9.229270993283e-018 0 3.936657523870e-005 1.919376658478e-018 0 1.908633337759e-004 1.301042606983e-018 0 1.737417478543e-004 -2.016616040823e-017 0 1.582313682497e-004 -1.203464411459e-017 0 1.441883583662e-004 -4.174178364069e-018 0 1.314824893639e-004 1.626303258728e-019 0 1.199959324732e-004 -5.258380536555e-018 0 1.096221663009e-004 -1.122149248522e-017 0 1.002649889970e-004 -1.344410693882e-017 0 9.183762611966e-005 -1.062518129036e-017 0 8.426192592654e-005 -3.035766082959e-018 0 7.746763462918e-005 1.238700982065e-017 0 7.139174488946e-005 1.203464411459e-017 0 6.597791151656e-005 -5.881796785734e-018 0 6.117592894599e-005 3.496552006266e-018 0 5.694126565466e-005 1.913616834437e-017 0 5.323465119473e-005 1.326792408579e-017 0 5.002171201637e-005 -5.963111948670e-019 0 4.727265270216e-005 -1.401331307938e-017 0 4.496197965721e-005 -1.374226253625e-017 0 4.306826469255e-005 -9.534202854294e-018 0 4.157394630924e-005 -1.141800412899e-017 0 4.046516684070e-005 -1.055064239100e-017 0 3.973164394258e-005 -1.895659735955e-018 0 3.936657523869e-005 3.260229813982e-018 0 1.908633337759e-004 -4.987329993433e-018 0 1.737417478543e-004 1.734723475977e-018 0 1.582313682497e-004 -5.692061405549e-018 0 1.441883583662e-004 -7.752045533271e-018 0 1.314824893639e-004 -9.053088140254e-018 0 1.199959324732e-004 -1.301042606983e-017 0 1.096221663009e-004 -1.393199791644e-017 0 1.002649889970e-004 -1.100465205073e-017 0 9.183762611966e-005 -1.802486111757e-017 0 8.426192592654e-005 -3.225501463144e-017 0 7.746763462921e-005 -2.368981746881e-017 0 7.139174488945e-005 -8.402566836763e-018 0 6.597791151656e-005 -7.968885967768e-018 0 6.117592894600e-005 -5.610746242612e-018 0 5.694126565465e-005 -7.779150587583e-018 0 5.323465119472e-005 -1.195332895165e-017 0 5.002171201637e-005 -6.911788849595e-018 0 4.727265270215e-005 -2.927345865711e-018 0 4.496197965722e-005 -5.217722955086e-018 0 4.306826469254e-005 -1.533468447709e-017 0 4.157394630924e-005 -2.048464479640e-017 0 4.046516684071e-005 -1.037107140618e-017 0 3.973164394259e-005 2.659683454379e-018 0 3.936657523869e-005 4.291492427264e-018 0 1.908633337759e-004 1.474514954580e-017 0 1.737417478543e-004 1.317305639570e-017 0 1.582313682497e-004 -9.161508357503e-018 0 1.441883583662e-004 -1.658829323903e-017 0 1.314824893639e-004 -2.135878279796e-017 0 1.199959324732e-004 -2.596664203103e-017 0 1.096221663009e-004 -1.740144486839e-017 0 1.002649889970e-004 -1.490777987168e-017 0 9.183762611966e-005 -4.038653092509e-018 0 8.426192592651e-005 -1.767249541151e-017 0 7.746763462922e-005 -4.399150314860e-017 0 7.139174488950e-005 -2.818925648462e-018 0 6.597791151655e-005 3.108949729602e-017 0 6.117592894598e-005 -5.177065373618e-018 0 5.694126565466e-005 -1.836367429647e-017 0 5.323465119473e-005 -3.415236843329e-018 0 5.002171201637e-005 1.084202172486e-019 0 4.727265270216e-005 1.271227047239e-017 0 4.496197965719e-005 9.215718466127e-019 0 4.306826469252e-005 -3.742530374148e-017 0 4.157394630926e-005 -3.828588921589e-017 0 4.046516684073e-005 -8.971772977318e-018 0 3.973164394259e-005 -2.493664996717e-018 0 3.936657523869e-005 -5.232969548137e-018 0 
        </DataArray>
        <DataArray type="Int32" Name="MatGroup" format="ascii">
          0 0 0 0 0 0 0 0 0 0 0 0 0 0 0 0 0 0 0 0 0 0 0 0 0 0 0 0 0 0 0 0 0 0 0 0 0 0 0 0 0 0 0 0 0 0 0 0 0 0 0 0 0 0 0 0 0 0 0 0 0 0 0 0 0 0 0 0 0 0 0 0 0 0 0 0 0 0 0 0 0 0 0 0 0 0 0 0 0 0 0 0 0 0 0 0 0 0 0 0 0 0 0 0 0 0 0 0 0 0 0 0 0 0 0 0 0 0 0 0 0 0 0 0 0 0 0 0 0 0 0 0 0 0 0 0 0 0 0 0 0 0 0 0 0 0 0 0 0 0 0 0 0 0 0 0 0 0 0 0 0 0 0 0 0 0 0 0 0 0 0 0 0 0 0 0 0 0 0 0 0 0 0 0 0 0 0 0 0 0 0 0 0 0 0 0 0 0 0 0 0 0 0 0 0 0 0 0 0 0 0 0 0 0 0 0 0 0 0 0 0 0 0 0 0 0 0 0 0 0 0 0 0 0 0 0 0 0 0 0 0 0 0 0 0 0 0 0 0 0 0 0 0 0 0 0 0 0 0 0 0 0 0 0 0 0 0 0 0 0 0 0 0 0 0 0 0 0 0 0 0 0 0 0 0 0 0 0 
        </DataArray>
      </CellData>
    </Piece>
  </UnstructuredGrid>
</VTKFile>
