<?xml version="1.0"?>
<VTKFile type="UnstructuredGrid" version="0.1" byte_order="LittleEndian">
  <UnstructuredGrid>
    <Piece NumberOfPoints="2604" NumberOfCells="4910">
      <Points>
        <DataArray type="Float64" NumberOfComponents="3" format="ascii">
          0.000000000000e+000 0.000000000000e+000 0.000000000000e+000
          2.000000000000e+002 0.000000000000e+000 0.000000000000e+000
          2.000000000000e+002 2.000000000000e+001 0.000000000000e+000
          0.000000000000e+000 2.000000000000e+001 0.000000000000e+000
          1.492537313427e+000 0.000000000000e+000 0.000000000000e+000
          2.985074626854e+000 0.000000000000e+000 0.000000000000e+000
          4.477611940281e+000 0.000000000000e+000 0.000000000000e+000
          5.970149253708e+000 0.000000000000e+000 0.000000000000e+000
          7.462686567135e+000 0.000000000000e+000 0.000000000000e+000
          8.955223880561e+000 0.000000000000e+000 0.000000000000e+000
          1.044776119399e+001 0.000000000000e+000 0.000000000000e+000
          1.194029850741e+001 0.000000000000e+000 0.000000000000e+000
          1.343283582084e+001 0.000000000000e+000 0.000000000000e+000
          1.492537313427e+001 0.000000000000e+000 0.000000000000e+000
          1.641791044770e+001 0.000000000000e+000 0.000000000000e+000
          1.791044776112e+001 0.000000000000e+000 0.000000000000e+000
          1.940298507455e+001 0.000000000000e+000 0.000000000000e+000
          2.089552238798e+001 0.000000000000e+000 0.000000000000e+000
          2.238805970141e+001 0.000000000000e+000 0.000000000000e+000
          2.388059701484e+001 0.000000000000e+000 0.000000000000e+000
          2.537313432826e+001 0.000000000000e+000 0.000000000000e+000
          2.686567164169e+001 0.000000000000e+000 0.000000000000e+000
          2.835820895511e+001 0.000000000000e+000 0.000000000000e+000
          2.985074626854e+001 0.000000000000e+000 0.000000000000e+000
          3.134328358196e+001 0.000000000000e+000 0.000000000000e+000
          3.283582089539e+001 0.000000000000e+000 0.000000000000e+000
          3.432835820881e+001 0.000000000000e+000 0.000000000000e+000
          3.582089552224e+001 0.000000000000e+000 0.000000000000e+000
          3.731343283566e+001 0.000000000000e+000 0.000000000000e+000
          3.880597014909e+001 0.000000000000e+000 0.000000000000e+000
          4.029850746251e+001 0.000000000000e+000 0.000000000000e+000
          4.179104477594e+001 0.000000000000e+000 0.000000000000e+000
          4.328358208936e+001 0.000000000000e+000 0.000000000000e+000
          4.477611940279e+001 0.000000000000e+000 0.000000000000e+000
          4.626865671621e+001 0.000000000000e+000 0.000000000000e+000
          4.776119402964e+001 0.000000000000e+000 0.000000000000e+000
          4.925373134306e+001 0.000000000000e+000 0.000000000000e+000
          5.074626865649e+001 0.000000000000e+000 0.000000000000e+000
          5.223880596991e+001 0.000000000000e+000 0.000000000000e+000
          5.373134328334e+001 0.000000000000e+000 0.000000000000e+000
          5.522388059676e+001 0.000000000000e+000 0.000000000000e+000
          5.671641791019e+001 0.000000000000e+000 0.000000000000e+000
          5.820895522361e+001 0.000000000000e+000 0.000000000000e+000
          5.970149253704e+001 0.000000000000e+000 0.000000000000e+000
          6.119402985046e+001 0.000000000000e+000 0.000000000000e+000
          6.268656716389e+001 0.000000000000e+000 0.000000000000e+000
          6.417910447732e+001 0.000000000000e+000 0.000000000000e+000
          6.567164179075e+001 0.000000000000e+000 0.000000000000e+000
          6.716417910418e+001 0.000000000000e+000 0.000000000000e+000
          6.865671641761e+001 0.000000000000e+000 0.000000000000e+000
          7.014925373104e+001 0.000000000000e+000 0.000000000000e+000
          7.164179104447e+001 0.000000000000e+000 0.000000000000e+000
          7.313432835790e+001 0.000000000000e+000 0.000000000000e+000
          7.462686567133e+001 0.000000000000e+000 0.000000000000e+000
          7.611940298476e+001 0.000000000000e+000 0.000000000000e+000
          7.761194029819e+001 0.000000000000e+000 0.000000000000e+000
          7.910447761162e+001 0.000000000000e+000 0.000000000000e+000
          8.059701492505e+001 0.000000000000e+000 0.000000000000e+000
          8.208955223848e+001 0.000000000000e+000 0.000000000000e+000
          8.358208955191e+001 0.000000000000e+000 0.000000000000e+000
          8.507462686534e+001 0.000000000000e+000 0.000000000000e+000
          8.656716417877e+001 0.000000000000e+000 0.000000000000e+000
          8.805970149220e+001 0.000000000000e+000 0.000000000000e+000
          8.955223880563e+001 0.000000000000e+000 0.000000000000e+000
          9.104477611907e+001 0.000000000000e+000 0.000000000000e+000
          9.253731343250e+001 0.000000000000e+000 0.000000000000e+000
          9.402985074593e+001 0.000000000000e+000 0.000000000000e+000
          9.552238805936e+001 0.000000000000e+000 0.000000000000e+000
          9.701492537279e+001 0.000000000000e+000 0.000000000000e+000
          9.850746268622e+001 0.000000000000e+000 0.000000000000e+000
          9.999999999965e+001 0.000000000000e+000 0.000000000000e+000
          1.014925373131e+002 0.000000000000e+000 0.000000000000e+000
          1.029850746265e+002 0.000000000000e+000 0.000000000000e+000
          1.044776119399e+002 0.000000000000e+000 0.000000000000e+000
          1.059701492534e+002 0.000000000000e+000 0.000000000000e+000
          1.074626865668e+002 0.000000000000e+000 0.000000000000e+000
          1.089552238802e+002 0.000000000000e+000 0.000000000000e+000
          1.104477611937e+002 0.000000000000e+000 0.000000000000e+000
          1.119402985071e+002 0.000000000000e+000 0.000000000000e+000
          1.134328358205e+002 0.000000000000e+000 0.000000000000e+000
          1.149253731340e+002 0.000000000000e+000 0.000000000000e+000
          1.164179104474e+002 0.000000000000e+000 0.000000000000e+000
          1.179104477608e+002 0.000000000000e+000 0.000000000000e+000
          1.194029850742e+002 0.000000000000e+000 0.000000000000e+000
          1.208955223877e+002 0.000000000000e+000 0.000000000000e+000
          1.223880597011e+002 0.000000000000e+000 0.000000000000e+000
          1.238805970145e+002 0.000000000000e+000 0.000000000000e+000
          1.253731343280e+002 0.000000000000e+000 0.000000000000e+000
          1.268656716414e+002 0.000000000000e+000 0.000000000000e+000
          1.283582089548e+002 0.000000000000e+000 0.000000000000e+000
          1.298507462683e+002 0.000000000000e+000 0.000000000000e+000
          1.313432835817e+002 0.000000000000e+000 0.000000000000e+000
          1.328358208952e+002 0.000000000000e+000 0.000000000000e+000
          1.343283582086e+002 0.000000000000e+000 0.000000000000e+000
          1.358208955220e+002 0.000000000000e+000 0.000000000000e+000
          1.373134328355e+002 0.000000000000e+000 0.000000000000e+000
          1.388059701489e+002 0.000000000000e+000 0.000000000000e+000
          1.402985074624e+002 0.000000000000e+000 0.000000000000e+000
          1.417910447758e+002 0.000000000000e+000 0.000000000000e+000
          1.432835820892e+002 0.000000000000e+000 0.000000000000e+000
          1.447761194027e+002 0.000000000000e+000 0.000000000000e+000
          1.462686567161e+002 0.000000000000e+000 0.000000000000e+000
          1.477611940296e+002 0.000000000000e+000 0.000000000000e+000
          1.492537313430e+002 0.000000000000e+000 0.000000000000e+000
          1.507462686564e+002 0.000000000000e+000 0.000000000000e+000
          1.522388059699e+002 0.000000000000e+000 0.000000000000e+000
          1.537313432833e+002 0.000000000000e+000 0.000000000000e+000
          1.552238805968e+002 0.000000000000e+000 0.000000000000e+000
          1.567164179102e+002 0.000000000000e+000 0.000000000000e+000
          1.582089552237e+002 0.000000000000e+000 0.000000000000e+000
          1.597014925371e+002 0.000000000000e+000 0.000000000000e+000
          1.611940298505e+002 0.000000000000e+000 0.000000000000e+000
          1.626865671640e+002 0.000000000000e+000 0.000000000000e+000
          1.641791044774e+002 0.000000000000e+000 0.000000000000e+000
          1.656716417909e+002 0.000000000000e+000 0.000000000000e+000
          1.671641791043e+002 0.000000000000e+000 0.000000000000e+000
          1.686567164177e+002 0.000000000000e+000 0.000000000000e+000
          1.701492537312e+002 0.000000000000e+000 0.000000000000e+000
          1.716417910446e+002 0.000000000000e+000 0.000000000000e+000
          1.731343283581e+002 0.000000000000e+000 0.000000000000e+000
          1.746268656715e+002 0.000000000000e+000 0.000000000000e+000
          1.761194029849e+002 0.000000000000e+000 0.000000000000e+000
          1.776119402984e+002 0.000000000000e+000 0.000000000000e+000
          1.791044776118e+002 0.000000000000e+000 0.000000000000e+000
          1.805970149253e+002 0.000000000000e+000 0.000000000000e+000
          1.820895522387e+002 0.000000000000e+000 0.000000000000e+000
          1.835820895521e+002 0.000000000000e+000 0.000000000000e+000
          1.850746268656e+002 0.000000000000e+000 0.000000000000e+000
          1.865671641790e+002 0.000000000000e+000 0.000000000000e+000
          1.880597014925e+002 0.000000000000e+000 0.000000000000e+000
          1.895522388059e+002 0.000000000000e+000 0.000000000000e+000
          1.910447761194e+002 0.000000000000e+000 0.000000000000e+000
          1.925373134328e+002 0.000000000000e+000 0.000000000000e+000
          1.940298507462e+002 0.000000000000e+000 0.000000000000e+000
          1.955223880597e+002 0.000000000000e+000 0.000000000000e+000
          1.970149253731e+002 0.000000000000e+000 0.000000000000e+000
          1.985074626866e+002 0.000000000000e+000 0.000000000000e+000
          2.000000000000e+002 1.428571428570e+000 0.000000000000e+000
          2.000000000000e+002 2.857142857140e+000 0.000000000000e+000
[...]
      <PointData Scalars="MEAN_PRESSURE">
        <DataArray type="Float64" Name="MEAN_PRESSURE" format="ascii">
          2.000000000000e+002 1.999999277540e+002 1.999999277496e+002 2.000000000000e+002 1.984427925502e+002 1.966811869121e+002 1.960920261015e+002 1.960102157224e+002 1.960841865391e+002 1.961805516705e+002 1.962763725780e+002 1.963716379114e+002 1.964678270397e+002 1.965651077787e+002 1.966631255004e+002 1.967615662858e+002 1.968601426548e+002 1.969585913399e+002 1.970567177204e+002 1.971543246822e+002 1.972512716759e+002 1.973473162348e+002 1.974423707354e+002 1.975363052319e+002 1.976290061024e+002 1.977203229808e+002 1.978101937640e+002 1.978985054322e+002 1.979851352091e+002 1.980700169193e+002 1.981530667074e+002 1.982342667218e+002 1.983134952871e+002 1.983907311501e+002 1.984659234872e+002 1.985390114045e+002 1.986100090712e+002 1.986788303679e+002 1.987454987083e+002 1.988100230269e+002 1.988723282577e+002 1.989323861562e+002 1.989903018943e+002 1.990460231136e+002 1.990995979533e+002 1.991510262617e+002 1.992003730117e+002 1.992475502046e+002 1.992927520895e+002 1.993358868972e+002 1.993770226759e+002 1.994162268967e+002 1.994535790525e+002 1.994889857665e+002 1.995226423953e+002 1.995545559358e+002 1.995847968496e+002 1.996133606803e+002 1.996403312634e+002 1.996658437915e+002 1.996898072200e+002 1.997123657837e+002 1.997335685250e+002 1.997534952878e+002 1.997721671628e+002 1.997896503185e+002 1.998060035554e+002 1.998212710571e+002 1.998355249636e+002 1.998487946099e+002 1.998611618268e+002 1.998726403472e+002 1.998833061175e+002 1.998931914810e+002 1.999023430060e+002 1.999108145393e+002 1.999186330953e+002 1.999258574912e+002 1.999325104822e+002 1.999386362806e+002 1.999442606846e+002 1.999494325876e+002 1.999541711251e+002 1.999585148674e+002 1.999624860809e+002 1.999661143210e+002 1.999694269425e+002 1.999724460430e+002 1.999751943052e+002 1.999776936104e+002 1.999799635392e+002 1.999820230738e+002 1.999838894660e+002 1.999855776056e+002 1.999871018620e+002 1.999884798052e+002 1.999897207465e+002 1.999908384034e+002 1.999918439876e+002 1.999927479627e+002 1.999935587503e+002 1.999942846326e+002 1.999949353858e+002 1.999955164084e+002 1.999960352696e+002 1.999964981586e+002 1.999969107775e+002 1.999972777216e+002 1.999976034351e+002 1.999978930037e+002 1.999981493203e+002 1.999983762493e+002 1.999985770086e+002 1.999987545274e+002 1.999989109777e+002 1.999990486298e+002 1.999991699746e+002 1.999992764298e+002 1.999993698350e+002 1.999994517029e+002 1.999995234144e+002 1.999995860391e+002 1.999996405646e+002 1.999996880089e+002 1.999997291872e+002 1.999997647879e+002 1.999997955609e+002 1.999998220471e+002 1.999998446285e+002 1.999998638572e+002 1.999998800609e+002 1.999998933809e+002 1.999999042740e+002 1.999999129135e+002 1.999999195701e+002 1.999999239684e+002 1.999999267697e+002 1.999999276578e+002 1.999999275680e+002 1.999999277627e+002 1.999999277239e+002 1.999999277053e+002 1.999999276700e+002 1.999999276471e+002 1.999999276633e+002 1.999999276653e+002 1.999999276216e+002 1.999999277437e+002 1.999999275593e+002 1.999999276526e+002 1.999999267660e+002 1.999999239659e+002 1.999999195682e+002 1.999999129116e+002 1.999999042734e+002 1.999998933883e+002 1.999998800769e+002 1.999998638768e+002 1.999998446500e+002 1.999998220712e+002 1.999997955742e+002 1.999997648072e+002 1.999997291947e+002 1.999996880026e+002 1.999996405614e+002 1.999995860162e+002 1.999995233773e+002 1.999994518481e+002 1.999993699704e+002 1.999992764772e+002 1.999991699897e+002 1.999990487262e+002 1.999989108689e+002 1.999987545634e+002 1.999985772311e+002 1.999983765532e+002 1.999981493507e+002 1.999978929508e+002 1.999976033071e+002 1.999972776859e+002 1.999969106663e+002 1.999964983287e+002 1.999960355654e+002 1.999955160783e+002 1.999949351832e+002 1.999942844132e+002 1.999935587403e+002 1.999927477352e+002 1.999918442012e+002 1.999908386934e+002 1.999897197371e+002 1.999884791641e+002 1.999871013663e+002 1.999855775668e+002 1.999838891685e+002 1.999820217482e+002 1.999799639292e+002 1.999776938481e+002 1.999751943765e+002 1.999724459600e+002 1.999694278467e+002 1.999661177238e+002 1.999624890745e+002 1.999585146541e+002 1.999541750604e+002 1.999494326862e+002 1.999442619184e+002 1.999386320443e+002 1.999325131853e+002 1.999258578744e+002 1.999186406291e+002 1.999108183369e+002 1.999023464200e+002 1.998931880807e+002 1.998833022166e+002 1.998726449781e+002 1.998611601926e+002 1.998488035179e+002 1.998355225616e+002 1.998212723733e+002 1.998059967719e+002 1.997896466474e+002 1.997721702602e+002 1.997534990112e+002 1.997335828444e+002 1.997123614775e+002 1.996897865463e+002 1.996657951435e+002 1.996403350682e+002 1.996133587256e+002 1.995847890580e+002 1.995545772944e+002 1.995226603305e+002 1.994889993185e+002 1.994535314369e+002 1.994162210972e+002 1.993770175958e+002 1.993358334502e+002 1.992927222369e+002 1.992475797755e+002 1.992003567696e+002 1.991510719711e+002 1.990996117125e+002 1.990460157910e+002 1.989902868461e+002 1.989323582968e+002 1.988722415954e+002 1.988099458799e+002 1.987454505296e+002 1.986787516401e+002 1.986099095350e+002 1.985388901288e+002 1.984657460183e+002 1.983905114468e+002 1.983132305692e+002 1.982339259682e+002 1.981526388574e+002 1.980694673896e+002 1.979844258385e+002 1.978976047072e+002 1.978090811989e+002 1.977189430163e+002 1.976272543241e+002 1.975340911578e+002 1.974395556328e+002 1.973437375200e+002 1.972467365200e+002 1.971486324732e+002 1.970495570579e+002 1.969495422955e+002 1.968487525272e+002 1.967472256123e+002 1.966450672053e+002 1.965423971781e+002 1.964394075663e+002 1.963361453075e+002 1.962323294860e+002 1.961268209430e+002 1.960211418838e+002 1.959423601750e+002 1.960201247380e+002 1.966185725510e+002 1.983869944170e+002 2.000000000000e+002 2.000000000000e+002 2.000000000000e+002 2.000000000000e+002 2.000000000000e+002 2.000000000000e+002 2.000000000000e+002 2.000000000000e+002 2.000000000000e+002 2.000000000000e+002 2.000000000000e+002 2.000000000000e+002 2.000000000000e+002 1.999998841632e+002 1.962027637320e+002 1.999997105170e+002 1.999992266465e+002 1.999980084811e+002 1.999951965925e+002 1.999890358785e+002 1.973933615593e+002 1.999764685182e+002 1.980327560456e+002 1.985791253012e+002 1.990252951722e+002 1.995031678250e+002 1.997012148195e+002 1.998284963470e+002 1.999066466510e+002 1.999518428388e+002 1.968130483363e+002 1.992927465197e+002 1.999661104382e+002 1.999659572125e+002 1.999325119873e+002 1.998726418471e+002 1.997721713247e+002 1.996133680772e+002 1.999995336263e+002 1.999987798770e+002 1.999969549290e+002 1.996133377438e+002 1.997688835403e+002 1.998735326365e+002 1.999313470488e+002 1.999928455962e+002 1.999838857045e+002 1.977154833072e+002 1.983041576691e+002 1.988170748682e+002 1.999839715991e+002 1.999927545717e+002 1.999969138034e+002 1.999987540007e+002 1.999995231992e+002 1.988092640059e+002 1.983124560029e+002 1.977192235424e+002 1.999998194593e+002 1.999998178996e+002 1.991933784944e+002 1.993876853210e+002 1.965490625131e+002 1.970643042820e+002 1.999999131976e+002 1.959649559414e+002 1.999999134274e+002 1.958955686612e+002 1.964902936659e+002 1.971405061678e+002 1.991395801130e+002 1.994216933970e+002 1.999997094177e+002 1.999518466854e+002 1.999992247262e+002 1.999066633942e+002 1.998285229760e+002 1.997012477534e+002 1.995131518279e+002 1.999764451264e+002 1.999980285661e+002 1.999952842837e+002 1.999892244810e+002 1.980260688786e+002 1.985684044861e+002 1.999764923118e+002 1.999891133220e+002 1.999952327861e+002 1.999980244502e+002 1.997011584087e+002 1.998284639566e+002 1.999066234884e+002 1.999992246796e+002 1.999519261195e+002 1.999997093154e+002 1.990184448562e+002 1.985746426095e+002 1.980272292022e+002 1.973922398372e+002 1.999998782345e+002 1.999998792249e+002 1.962327468996e+002 1.974439166658e+002 1.995292803689e+002 1.989751170519e+002 1.999999201926e+002 1.960605162914e+002 1.968211019722e+002 1.962304191016e+002 1.968095723580e+002 1.992670661540e+002 1.991680841422e+002 1.994044170751e+002 1.965020433606e+002 1.970781735166e+002 1.992937319922e+002 1.999998379081e+002 1.999972430959e+002 1.999985829255e+002 1.999934822861e+002 1.999994540842e+002 1.999854105124e+002 1.999376221556e+002 1.997867528861e+002 1.996358635763e+002 1.998822604014e+002 1.978062687261e+002 1.987517551987e+002 1.982418879340e+002 1.999628344213e+002 1.992927279329e+002 1.999999231207e+002 1.965029381867e+002 1.999999231232e+002 1.964252669558e+002 1.999406991979e+002 1.998869225911e+002 1.997956251065e+002 1.996496276832e+002 1.999812984487e+002 1.999609384599e+002 1.999705360830e+002 1.999914914677e+002 1.988940576280e+002 1.999963362626e+002 1.984177761933e+002 1.999985067888e+002 1.978411441035e+002 1.999994231480e+002 1.999994203089e+002 1.999996103042e+002 1.999984998493e+002 1.999989647313e+002 1.999962947450e+002 1.999973850477e+002 1.999914008966e+002 1.999937977816e+002 1.978540493919e+002 1.999860699854e+002 1.999812919171e+002 1.984250763077e+002 1.982082416232e+002 1.996498532245e+002 1.997963269863e+002 1.998877288555e+002 1.997471353820e+002 1.998571754652e+002 1.999404458919e+002 1.999235616817e+002 1.987407614297e+002 1.999705429674e+002 1.999616745214e+002 1.999996064553e+002 1.975940209988e+002 1.999989404302e+002 1.982169439561e+002 1.999973488329e+002 1.987315371703e+002 1.999937167717e+002 1.995692337406e+002 1.997444913901e+002 1.998555857037e+002 1.999224811731e+002 1.999859087442e+002 1.967701703532e+002 1.999997831451e+002 1.999997817752e+002 1.994288702212e+002 1.991285948171e+002 1.971940557870e+002 1.999702721353e+002 1.998575250528e+002 1.999238836591e+002 1.997480328136e+002 1.995698175630e+002 1.976006126685e+002 1.984114091574e+002 1.999996029000e+002 1.988904453463e+002 1.999989500041e+002 1.999963755898e+002 1.999814738416e+002 1.999915772286e+002 1.976267932527e+002 1.999998454438e+002 1.999998454320e+002 1.993595923257e+002 1.964408256331e+002 1.999997860325e+002 1.999727037355e+002 1.999797971515e+002 1.999907568282e+002 1.989334437105e+002 1.999959976317e+002 1.984714673548e+002 1.997320344522e+002 1.998478316212e+002 1.999180736343e+002 1.999996415673e+002 1.975331180505e+002 1.999990585255e+002 1.970102309174e+002 1.995571566818e+002 1.999999038352e+002 1.999999026242e+002 1.999997607544e+002 1.995885002383e+002 1.988646636213e+002 1.994577532425e+002 1.990917703126e+002 1.960090112069e+002 1.972632572984e+002 1.963527760371e+002 1.966092987145e+002 1.972636290136e+002 1.999440033305e+002 1.998928891207e+002 1.998054899310e+002 1.996650070638e+002 1.999983876661e+002 1.978934007190e+002 1.999993746872e+002 1.999583563353e+002 1.999870689453e+002 1.999983686235e+002 1.999943163785e+002 1.999993667949e+002 1.999976172004e+002 1.999446460752e+002 1.998928699602e+002 1.998066406524e+002 1.996668008592e+002 1.979019599965e+002 1.986808325020e+002 1.981495505977e+002 1.981493334199e+002 1.999976164724e+002 1.986759202738e+002 1.999943126262e+002 1.999871602107e+002 1.999583395603e+002 1.999999235889e+002 1.999999238574e+002 1.965807117778e+002 1.964298413936e+002 1.999999060037e+002 1.960226394388e+002 1.999998637211e+002 1.999998667454e+002 1.960974848542e+002 1.999998962746e+002 1.962983143557e+002 1.960502070399e+002 1.990782863132e+002 1.994688365196e+002 1.973180543607e+002 1.963992210092e+002 1.990415465363e+002 1.969698303673e+002 1.969499270238e+002 1.994932531443e+002 1.966972333027e+002 1.991725985950e+002 1.993551293583e+002 1.966342558319e+002 1.984486115615e+002 1.999805821955e+002 1.999910842060e+002 1.999961485554e+002 1.999990343328e+002 1.999996353588e+002 1.999716170097e+002 1.995610798415e+002 1.997377565969e+002 1.998513998133e+002 1.999201626463e+002 1.992240239910e+002 1.969687634107e+002 1.993636754800e+002 1.992111867137e+002 1.999997691059e+002 1.999998925044e+002 1.975587383994e+002 1.989054022595e+002 1.961134327442e+002 1.959370507644e+002 1.999999111167e+002 1.966724236813e+002 1.999491870208e+002 1.999019087179e+002 1.998205474626e+002 1.996886493791e+002 1.999776309007e+002 1.999752524540e+002 1.999544450940e+002 1.999897718486e+002 1.999955401254e+002 1.989875805576e+002 1.999981597034e+002 1.985354405288e+002 1.999992806931e+002 1.979803621187e+002 1.999996868636e+002 1.999992773786e+002 1.999981638303e+002 1.999955567817e+002 1.999898067483e+002 1.979796692872e+002 1.985333033749e+002 1.996895139178e+002 1.998204337969e+002 1.999018411310e+002 1.999996857881e+002 1.974441081157e+002 1.995257450420e+002 1.999997124322e+002 1.999998719656e+002 1.999998719877e+002 1.974879913084e+002 1.972393519419e+002 1.962813369933e+002 1.993396858604e+002 1.999995590922e+002 1.999988435040e+002 1.999966870741e+002 1.999922571615e+002 1.999827087288e+002 1.976688599668e+002 1.983564349660e+002 1.988447794746e+002 1.999290970514e+002 1.997625486630e+002 1.995988462156e+002 1.998653614356e+002 1.999682791405e+002 1.999998051262e+002 1.999999154714e+002 1.999999154750e+002 1.999992064769e+002 1.999953252598e+002 1.999893121615e+002 1.985633392232e+002 1.997050544358e+002 1.998309245251e+002 1.999080876096e+002 1.959225357499e+002 1.992446125587e+002 1.999769360592e+002 1.999760158759e+002 1.995124029359e+002 1.999999256728e+002 1.973692314123e+002 1.989473812796e+002 1.995474479431e+002 1.999838197778e+002 1.999927142013e+002 1.999968953760e+002 1.999995232533e+002 1.999987544989e+002 1.988122551180e+002 1.983161064477e+002 1.977189606360e+002 1.998726384388e+002 1.999325104294e+002 1.996133403137e+002 1.997721609257e+002 1.999995231664e+002 1.999987542281e+002 1.997721335349e+002 1.998728080127e+002 1.999969095899e+002 1.999325518521e+002 1.999927455954e+002 1.999839012836e+002 1.983134381326e+002 1.999662393661e+002 1.999661093116e+002 1.969092003763e+002 1.990927318531e+002 1.968709691736e+002 1.995725675772e+002 1.993037526842e+002 1.999998512276e+002 1.999998492574e+002 1.994152650659e+002 1.994366676716e+002 1.993236790815e+002 1.999787000099e+002 1.999472527930e+002 1.999560943140e+002 1.999740389397e+002 1.999142633723e+002 1.998413644683e+002 1.997216751058e+002 1.999879013442e+002 1.981060667690e+002 1.986399797038e+002 1.999991270054e+002 1.999977719377e+002 1.999946627964e+002 1.999991194598e+002 1.981056111751e+002 1.999977721651e+002 1.986398895208e+002 1.997216880303e+002 1.998413737386e+002 1.999131586813e+002 1.999946631442e+002 1.999879018537e+002 1.960197081180e+002 1.963844866332e+002 1.999999165890e+002 1.959721664635e+002 1.999520197594e+002 1.999516721808e+002 1.980251887660e+002 1.980242192521e+002 1.999980336378e+002 1.999980316322e+002 1.999999004538e+002 1.966986291664e+002 1.961830447994e+002 1.974491156660e+002 1.968016525474e+002 1.999999258419e+002 1.974551708465e+002 1.999999259516e+002 1.972752148063e+002 1.965514695087e+002 1.999997438490e+002 1.999997445230e+002 1.999890792402e+002 1.999952168016e+002 1.985766738663e+002 1.999062878367e+002 1.997002446929e+002 1.998278836136e+002 1.999992257047e+002 1.971251968973e+002 1.971418873209e+002 1.963556338667e+002 1.994756728308e+002 1.990671884016e+002 1.963599588993e+002 1.973072793986e+002 1.977406944181e+002 1.991618190677e+002 1.972161939914e+002 1.999998162747e+002 1.999998162883e+002 1.991242749396e+002 1.994487280355e+002 1.999997818432e+002 1.989759471870e+002 1.994552794353e+002 1.994117776567e+002 1.999989552265e+002 1.975949566593e+002 1.999996058465e+002 1.997322338457e+002 1.998477292378e+002 1.999181455872e+002 1.999728738091e+002 1.984205279341e+002 1.999963196766e+002 1.988956959901e+002 1.999914553514e+002 1.999796338849e+002 1.999997081350e+002 1.969535633237e+002 1.993602154221e+002 1.992567293156e+002 1.990167840402e+002 1.965592742722e+002 1.999999261203e+002 1.976617082358e+002 1.999999261243e+002 1.978212889943e+002 1.960496342471e+002 1.973967307867e+002 1.992858842631e+002 1.991634100778e+002 1.999999014425e+002 1.987872371082e+002 1.996213120292e+002 1.971339947205e+002 1.994804241631e+002 1.967265886343e+002 1.999860188386e+002 1.999937696215e+002 1.999973727023e+002 1.987266656068e+002 1.982110412833e+002 1.999976384274e+002 1.999993605382e+002 1.999943637173e+002 1.999983540745e+002 1.999872709291e+002 1.981432635362e+002 1.986707976054e+002 1.979078377580e+002 1.996683896804e+002 1.998942907145e+002 1.998076250678e+002 1.999448925538e+002 1.999994180467e+002 1.999984943500e+002 1.978468365514e+002 1.999613812455e+002 1.996476444924e+002 1.997943453574e+002 1.998861465225e+002 1.999402542653e+002 1.999580812471e+002 1.999661124328e+002 1.999324903875e+002 1.997721243739e+002 1.998726338346e+002 1.996133105199e+002 1.999995233481e+002 1.999987543221e+002 1.999969151405e+002 1.999838872904e+002 1.999927578066e+002 1.977203026042e+002 1.983122094251e+002 1.988099134726e+002 1.990619885739e+002 1.972758559867e+002 1.999998996746e+002 1.960739054126e+002 1.999575799038e+002 1.999454414894e+002 1.998951137445e+002 1.998092073385e+002 1.996708269687e+002 1.999983197273e+002 1.999993471168e+002 1.979204877453e+002 1.999976686073e+002 1.999944189543e+002 1.999873730635e+002 1.981344947764e+002 1.986656688362e+002 1.992776366548e+002 1.999998194829e+002 1.992410144408e+002 1.999998371795e+002 1.999656442508e+002 1.999664113822e+002 1.999338603165e+002 1.998749515039e+002 1.997760036435e+002 1.996192721245e+002 1.999995143172e+002 1.999987319140e+002 1.999968375035e+002 1.999925871526e+002 1.999841188409e+002 1.983278183641e+002 1.999837340653e+002 1.997745420278e+002 1.998711554668e+002 1.999333480903e+002 1.999926894472e+002 1.999968840767e+002 1.988139915035e+002 1.999987559910e+002 1.983182758856e+002 1.999995240091e+002 1.977178575505e+002 1.968148074262e+002 1.999986086194e+002 1.977941128995e+002 1.999994645060e+002 1.997858684868e+002 1.999373163133e+002 1.998815734918e+002 1.996344915920e+002 1.982529222572e+002 1.999971922442e+002 1.987608563716e+002 1.999933696117e+002 1.999851525589e+002 1.999634392086e+002 1.961920497745e+002 1.999999259863e+002 1.975986418083e+002 1.999998610043e+002 1.999998904731e+002 1.999998904537e+002 1.992305652417e+002 1.993509602837e+002 1.971058752417e+002 1.977328437472e+002 1.999997624324e+002 1.961488355538e+002 1.999998160867e+002 1.999998153817e+002 1.973657642931e+002 1.999795544167e+002 1.999906554208e+002 1.989404638162e+002 1.999959506994e+002 1.984785383290e+002 1.999186727090e+002 1.998478259851e+002 1.997336855690e+002 1.999728244973e+002 1.999996487386e+002 1.975106414747e+002 1.999990706288e+002 1.990148358972e+002 1.995095414545e+002 1.991989332818e+002 1.965280433281e+002 1.963242377660e+002 1.999999210323e+002 1.961434455786e+002 1.999999210282e+002 1.960391624933e+002 1.996231931656e+002 1.987890253435e+002 1.995470780654e+002 1.966145368333e+002 1.999996676199e+002 1.959897111617e+002 1.991348591606e+002 1.993936292792e+002 1.991909630017e+002 1.970763932346e+002 1.965353235013e+002 1.968389826901e+002 1.988811300695e+002 1.965323168978e+002 1.969425613083e+002 1.992205569268e+002 1.962341844689e+002 1.964316270879e+002 1.993176007981e+002 1.991054566270e+002 1.994019471903e+002 1.991562390563e+002 1.999998791534e+002 1.960555587115e+002 1.975703544407e+002 1.999686883738e+002 1.999738880018e+002 1.999996663244e+002 1.999991164465e+002 1.999995782290e+002 1.999988845590e+002 1.999959648427e+002 1.999906857715e+002 1.984769739690e+002 1.999824781119e+002 1.999788297261e+002 1.995863111359e+002 1.995427792076e+002 1.997547230698e+002 1.997232022264e+002 1.998423215477e+002 1.998619301789e+002 1.999262703394e+002 1.999148056304e+002 1.959060698782e+002 1.999999128077e+002 1.999999126652e+002 1.999999204714e+002 1.999999204723e+002 1.959460227278e+002 1.999999183879e+002 1.999414720003e+002 1.998882782068e+002 1.997978594081e+002 1.996530975255e+002 1.999605590216e+002 1.999709545447e+002 1.999810318939e+002 1.999913607785e+002 1.989022083631e+002 1.999962762276e+002 1.984279319924e+002 1.999984809230e+002 1.978530202630e+002 1.999994126251e+002 1.999994125309e+002 1.999984807007e+002 1.999996142115e+002 1.999962733177e+002 1.999913542508e+0