<?xml version="1.0"?>
<VTKFile type="UnstructuredGrid" version="0.1" byte_order="LittleEndian">
  <UnstructuredGrid>
    <Piece NumberOfPoints="2604" NumberOfCells="4910">
      <Points>
        <DataArray type="Float64" NumberOfComponents="3" format="ascii">
          0.000000000000e+000 0.000000000000e+000 0.000000000000e+000
          2.000000000000e+002 0.000000000000e+000 0.000000000000e+000
          2.000000000000e+002 2.000000000000e+001 0.000000000000e+000
          0.000000000000e+000 2.000000000000e+001 0.000000000000e+000
          1.492537313427e+000 0.000000000000e+000 0.000000000000e+000
          2.985074626854e+000 0.000000000000e+000 0.000000000000e+000
          4.477611940281e+000 0.000000000000e+000 0.000000000000e+000
          5.970149253708e+000 0.000000000000e+000 0.000000000000e+000
          7.462686567135e+000 0.000000000000e+000 0.000000000000e+000
          8.955223880561e+000 0.000000000000e+000 0.000000000000e+000
          1.044776119399e+001 0.000000000000e+000 0.000000000000e+000
          1.194029850741e+001 0.000000000000e+000 0.000000000000e+000
          1.343283582084e+001 0.000000000000e+000 0.000000000000e+000
          1.492537313427e+001 0.000000000000e+000 0.000000000000e+000
          1.641791044770e+001 0.000000000000e+000 0.000000000000e+000
          1.791044776112e+001 0.000000000000e+000 0.000000000000e+000
          1.940298507455e+001 0.000000000000e+000 0.000000000000e+000
          2.089552238798e+001 0.000000000000e+000 0.000000000000e+000
          2.238805970141e+001 0.000000000000e+000 0.000000000000e+000
          2.388059701484e+001 0.000000000000e+000 0.000000000000e+000
          2.537313432826e+001 0.000000000000e+000 0.000000000000e+000
          2.686567164169e+001 0.000000000000e+000 0.000000000000e+000
          2.835820895511e+001 0.000000000000e+000 0.000000000000e+000
          2.985074626854e+001 0.000000000000e+000 0.000000000000e+000
          3.134328358196e+001 0.000000000000e+000 0.000000000000e+000
          3.283582089539e+001 0.000000000000e+000 0.000000000000e+000
          3.432835820881e+001 0.000000000000e+000 0.000000000000e+000
          3.582089552224e+001 0.000000000000e+000 0.000000000000e+000
          3.731343283566e+001 0.000000000000e+000 0.000000000000e+000
          3.880597014909e+001 0.000000000000e+000 0.000000000000e+000
          4.029850746251e+001 0.000000000000e+000 0.000000000000e+000
          4.179104477594e+001 0.000000000000e+000 0.000000000000e+000
          4.328358208936e+001 0.000000000000e+000 0.000000000000e+000
          4.477611940279e+001 0.000000000000e+000 0.000000000000e+000
          4.626865671621e+001 0.000000000000e+000 0.000000000000e+000
          4.776119402964e+001 0.000000000000e+000 0.000000000000e+000
          4.925373134306e+001 0.000000000000e+000 0.000000000000e+000
          5.074626865649e+001 0.000000000000e+000 0.000000000000e+000
          5.223880596991e+001 0.000000000000e+000 0.000000000000e+000
          5.373134328334e+001 0.000000000000e+000 0.000000000000e+000
          5.522388059676e+001 0.000000000000e+000 0.000000000000e+000
          5.671641791019e+001 0.000000000000e+000 0.000000000000e+000
          5.820895522361e+001 0.000000000000e+000 0.000000000000e+000
          5.970149253704e+001 0.000000000000e+000 0.000000000000e+000
          6.119402985046e+001 0.000000000000e+000 0.000000000000e+000
          6.268656716389e+001 0.000000000000e+000 0.000000000000e+000
          6.417910447732e+001 0.000000000000e+000 0.000000000000e+000
          6.567164179075e+001 0.000000000000e+000 0.000000000000e+000
          6.716417910418e+001 0.000000000000e+000 0.000000000000e+000
          6.865671641761e+001 0.000000000000e+000 0.000000000000e+000
          7.014925373104e+001 0.000000000000e+000 0.000000000000e+000
          7.164179104447e+001 0.000000000000e+000 0.000000000000e+000
          7.313432835790e+001 0.000000000000e+000 0.000000000000e+000
          7.462686567133e+001 0.000000000000e+000 0.000000000000e+000
          7.611940298476e+001 0.000000000000e+000 0.000000000000e+000
          7.761194029819e+001 0.000000000000e+000 0.000000000000e+000
          7.910447761162e+001 0.000000000000e+000 0.000000000000e+000
          8.059701492505e+001 0.000000000000e+000 0.000000000000e+000
          8.208955223848e+001 0.000000000000e+000 0.000000000000e+000
          8.358208955191e+001 0.000000000000e+000 0.000000000000e+000
          8.507462686534e+001 0.000000000000e+000 0.000000000000e+000
          8.656716417877e+001 0.000000000000e+000 0.000000000000e+000
          8.805970149220e+001 0.000000000000e+000 0.000000000000e+000
          8.955223880563e+001 0.000000000000e+000 0.000000000000e+000
          9.104477611907e+001 0.000000000000e+000 0.000000000000e+000
          9.253731343250e+001 0.000000000000e+000 0.000000000000e+000
          9.402985074593e+001 0.000000000000e+000 0.000000000000e+000
          9.552238805936e+001 0.000000000000e+000 0.000000000000e+000
          9.701492537279e+001 0.000000000000e+000 0.000000000000e+000
          9.850746268622e+001 0.000000000000e+000 0.000000000000e+000
          9.999999999965e+001 0.000000000000e+000 0.000000000000e+000
          1.014925373131e+002 0.000000000000e+000 0.000000000000e+000
          1.029850746265e+002 0.000000000000e+000 0.000000000000e+000
          1.044776119399e+002 0.000000000000e+000 0.000000000000e+000
          1.059701492534e+002 0.000000000000e+000 0.000000000000e+000
          1.074626865668e+002 0.000000000000e+000 0.000000000000e+000
          1.089552238802e+002 0.000000000000e+000 0.000000000000e+000
          1.104477611937e+002 0.000000000000e+000 0.000000000000e+000
          1.119402985071e+002 0.000000000000e+000 0.000000000000e+000
          1.134328358205e+002 0.000000000000e+000 0.000000000000e+000
          1.149253731340e+002 0.000000000000e+000 0.000000000000e+000
          1.164179104474e+002 0.000000000000e+000 0.000000000000e+000
          1.179104477608e+002 0.000000000000e+000 0.000000000000e+000
          1.194029850742e+002 0.000000000000e+000 0.000000000000e+000
          1.208955223877e+002 0.000000000000e+000 0.000000000000e+000
          1.223880597011e+002 0.000000000000e+000 0.000000000000e+000
          1.238805970145e+002 0.000000000000e+000 0.000000000000e+000
          1.253731343280e+002 0.000000000000e+000 0.000000000000e+000
          1.268656716414e+002 0.000000000000e+000 0.000000000000e+000
          1.283582089548e+002 0.000000000000e+000 0.000000000000e+000
          1.298507462683e+002 0.000000000000e+000 0.000000000000e+000
          1.313432835817e+002 0.000000000000e+000 0.000000000000e+000
          1.328358208952e+002 0.000000000000e+000 0.000000000000e+000
          1.343283582086e+002 0.000000000000e+000 0.000000000000e+000
          1.358208955220e+002 0.000000000000e+000 0.000000000000e+000
          1.373134328355e+002 0.000000000000e+000 0.000000000000e+000
          1.388059701489e+002 0.000000000000e+000 0.000000000000e+000
          1.402985074624e+002 0.000000000000e+000 0.000000000000e+000
          1.417910447758e+002 0.000000000000e+000 0.000000000000e+000
          1.432835820892e+002 0.000000000000e+000 0.000000000000e+000
          1.447761194027e+002 0.000000000000e+000 0.000000000000e+000
          1.462686567161e+002 0.000000000000e+000 0.000000000000e+000
          1.477611940296e+002 0.000000000000e+000 0.000000000000e+000
          1.492537313430e+002 0.000000000000e+000 0.000000000000e+000
          1.507462686564e+002 0.000000000000e+000 0.000000000000e+000
          1.522388059699e+002 0.000000000000e+000 0.000000000000e+000
          1.537313432833e+002 0.000000000000e+000 0.000000000000e+000
          1.552238805968e+002 0.000000000000e+000 0.000000000000e+000
          1.567164179102e+002 0.000000000000e+000 0.000000000000e+000
          1.582089552237e+002 0.000000000000e+000 0.000000000000e+000
          1.597014925371e+002 0.000000000000e+000 0.000000000000e+000
          1.611940298505e+002 0.000000000000e+000 0.000000000000e+000
          1.626865671640e+002 0.000000000000e+000 0.000000000000e+000
          1.641791044774e+002 0.000000000000e+000 0.000000000000e+000
          1.656716417909e+002 0.000000000000e+000 0.000000000000e+000
          1.671641791043e+002 0.000000000000e+000 0.000000000000e+000
          1.686567164177e+002 0.000000000000e+000 0.000000000000e+000
          1.701492537312e+002 0.000000000000e+000 0.000000000000e+000
          1.716417910446e+002 0.000000000000e+000 0.000000000000e+000
          1.731343283581e+002 0.000000000000e+000 0.000000000000e+000
          1.746268656715e+002 0.000000000000e+000 0.000000000000e+000
          1.761194029849e+002 0.000000000000e+000 0.000000000000e+000
          1.776119402984e+002 0.000000000000e+000 0.000000000000e+000
          1.791044776118e+002 0.000000000000e+000 0.000000000000e+000
          1.805970149253e+002 0.000000000000e+000 0.000000000000e+000
          1.820895522387e+002 0.000000000000e+000 0.000000000000e+000
          1.835820895521e+002 0.000000000000e+000 0.000000000000e+000
          1.850746268656e+002 0.000000000000e+000 0.000000000000e+000
          1.865671641790e+002 0.000000000000e+000 0.000000000000e+000
          1.880597014925e+002 0.000000000000e+000 0.000000000000e+000
          1.895522388059e+002 0.000000000000e+000 0.000000000000e+000
          1.910447761194e+002 0.000000000000e+000 0.000000000000e+000
          1.925373134328e+002 0.000000000000e+000 0.000000000000e+000
          1.940298507462e+002 0.000000000000e+000 0.000000000000e+000
          1.955223880597e+002 0.000000000000e+000 0.000000000000e+000
          1.970149253731e+002 0.000000000000e+000 0.000000000000e+000
          1.985074626866e+002 0.000000000000e+000 0.000000000000e+000
          2.000000000000e+002 1.428571428570e+000 0.000000000000e+000
          2.000000000000e+002 2.857142857140e+000 0.000000000000e+000
[...]
      <PointData Scalars="MEAN_PRESSURE">
        <DataArray type="Float64" Name="MEAN_PRESSURE" format="ascii">
          2.000000000000e+002 1.999999949539e+002 1.999999949536e+002 2.000000000000e+002 1.981946294364e+002 1.964381240946e+002 1.959357156548e+002 1.959310640491e+002 1.960328877675e+002 1.961402657702e+002 1.962472258377e+002 1.963555392105e+002 1.964656387132e+002 1.965769579979e+002 1.966889255371e+002 1.968011480178e+002 1.969132838094e+002 1.970250048435e+002 1.971360634403e+002 1.972462036402e+002 1.973552488700e+002 1.974628733880e+002 1.975689723506e+002 1.976733803817e+002 1.977759563327e+002 1.978765039458e+002 1.979749542243e+002 1.980711672646e+002 1.981649913443e+002 1.982563552050e+002 1.983451644197e+002 1.984314171376e+002 1.985149700242e+002 1.985958183256e+002 1.986739181761e+002 1.987492145664e+002 1.988217525749e+002 1.988914462465e+002 1.989583540329e+002 1.990225149585e+002 1.990838620936e+002 1.991423906609e+002 1.991982622580e+002 1.992514420154e+002 1.993020186627e+002 1.993500221309e+002 1.993955595134e+002 1.994385589174e+002 1.994792762558e+002 1.995176357397e+002 1.995537449392e+002 1.995877092646e+002 1.996196442051e+002 1.996494783485e+002 1.996774501791e+002 1.997035930914e+002 1.997280066278e+002 1.997507129418e+002 1.997718229887e+002 1.997914940224e+002 1.998096611567e+002 1.998264877235e+002 1.998420417684e+002 1.998564180753e+002 1.998696561823e+002 1.998818349374e+002 1.998930246028e+002 1.999032813799e+002 1.999126831756e+002 1.999212702851e+002 1.999291245305e+002 1.999362711704e+002 1.999427832359e+002 1.999486980654e+002 1.999540628948e+002 1.999589284414e+002 1.999633245045e+002 1.999673022835e+002 1.999708864720e+002 1.999741153937e+002 1.999770138783e+002 1.999796208513e+002 1.999819548633e+002 1.999840459017e+002 1.999859129573e+002 1.999875787435e+002 1.999890636512e+002 1.999903843921e+002 1.999915573345e+002 1.999925977873e+002 1.999935191838e+002 1.999943341393e+002 1.999950538580e+002 1.999956879620e+002 1.999962454102e+002 1.999967362509e+002 1.999971663609e+002 1.999975433005e+002 1.999978732238e+002 1.999981616872e+002 1.999984131867e+002 1.999986319554e+002 1.999988225949e+002 1.999989878633e+002 1.999991311726e+002 1.999992552890e+002 1.999993626745e+002 1.999994553133e+002 1.999995350423e+002 1.999996038030e+002 1.999996627785e+002 1.999997133756e+002 1.999997567456e+002 1.999997938997e+002 1.999998255991e+002 1.999998525895e+002 1.999998756304e+002 1.999998951824e+002 1.999999117793e+002 1.999999258524e+002 1.999999377797e+002 1.999999478538e+002 1.999999563350e+002 1.999999634749e+002 1.999999694717e+002 1.999999744897e+002 1.999999786933e+002 1.999999822023e+002 1.999999851046e+002 1.999999875076e+002 1.999999894792e+002 1.999999910583e+002 1.999999923224e+002 1.999999933060e+002 1.999999940523e+002 1.999999945386e+002 1.999999948463e+002 1.999999949434e+002 1.999999949336e+002 1.999999949549e+002 1.999999949506e+002 1.999999949486e+002 1.999999949448e+002 1.999999949423e+002 1.999999949441e+002 1.999999949443e+002 1.999999949395e+002 1.999999949529e+002 1.999999949328e+002 1.999999949430e+002 1.999999948461e+002 1.999999945386e+002 1.999999940523e+002 1.999999933061e+002 1.999999923226e+002 1.999999910595e+002 1.999999894817e+002 1.999999875108e+002 1.999999851083e+002 1.999999822068e+002 1.999999786963e+002 1.999999744938e+002 1.999999694740e+002 1.999999634749e+002 1.999999563356e+002 1.999999478507e+002 1.999999377737e+002 1.999999258844e+002 1.999999118105e+002 1.999998951950e+002 1.999998756369e+002 1.999998526171e+002 1.999998255764e+002 1.999997939145e+002 1.999997568096e+002 1.999997134641e+002 1.999996627916e+002 1.999996037938e+002 1.999995350131e+002 1.999994553131e+002 1.999993626493e+002 1.999992553547e+002 1.999991312864e+002 1.999989877594e+002 1.999988225346e+002 1.999986318876e+002 1.999984131937e+002 1.999981616010e+002 1.999978733063e+002 1.999975434213e+002 1.999971659255e+002 1.999967359686e+002 1.999962451857e+002 1.999956879354e+002 1.999950537012e+002 1.999943334777e+002 1.999935193687e+002 1.999925978956e+002 1.999915573649e+002 1.999903843501e+002 1.999890641775e+002 1.999875807239e+002 1.999859147420e+002 1.999840457957e+002 1.999819572851e+002 1.999796209250e+002 1.999770147543e+002 1.999741127356e+002 1.999708884668e+002 1.999673027574e+002 1.999633300067e+002 1.999589313754e+002 1.999540656274e+002 1.999486958188e+002 1.999427805664e+002 1.999362750887e+002 1.999291236266e+002 1.999212778706e+002 1.999126815512e+002 1.999032828342e+002 1.998930191794e+002 1.998818320976e+002 1.998696592636e+002 1.998564217656e+002 1.998420550841e+002 1.998264837019e+002 1.998096413490e+002 1.997914466835e+002 1.997718264976e+002 1.997507106714e+002 1.997279982952e+002 1.997036147785e+002 1.996774685203e+002 1.996494923217e+002 1.996195922457e+002 1.995877022099e+002 1.995537384319e+002 1.995175750045e+002 1.994792421198e+002 1.994385929145e+002 1.993955408898e+002 1.993500772003e+002 1.993020368052e+002 1.992514357655e+002 1.991982476901e+002 1.991423615216e+002 1.990837609828e+002 1.990224279013e+002 1.989583069038e+002 1.988913639997e+002 1.988216483892e+002 1.987490886812e+002 1.986737268567e+002 1.985955823269e+002 1.985146892760e+002 1.984310540384e+002 1.983447091366e+002 1.982557671373e+002 1.981642273197e+002 1.980701957784e+002 1.979737626977e+002 1.978750354068e+002 1.977740903618e+002 1.976710219397e+002 1.975659653291e+002 1.974590406699e+002 1.973503871484e+002 1.972401160507e+002 1.971284185761e+002 1.970153462520e+002 1.969011347397e+002 1.967858559920e+002 1.966696704343e+002 1.965527513619e+002 1.964353587070e+002 1.963177663413e+002 1.962004007633e+002 1.960829896325e+002 1.959649153666e+002 1.958552685825e+002 1.958590921787e+002 1.963634074743e+002 1.981362805085e+002 2.000000000000e+002 2.000000000000e+002 2.000000000000e+002 2.000000000000e+002 2.000000000000e+002 2.000000000000e+002 2.000000000000e+002 2.000000000000e+002 2.000000000000e+002 2.000000000000e+002 2.000000000000e+002 2.000000000000e+002 2.000000000000e+002 1.999999899685e+002 1.961665419365e+002 1.999999667697e+002 1.999998860980e+002 1.999996305758e+002 1.999988974214e+002 1.999969301660e+002 1.975144028626e+002 1.999920904298e+002 1.982163110839e+002 1.987902638736e+002 1.992317114709e+002 1.996613156671e+002 1.998181954988e+002 1.999080645447e+002 1.999565450131e+002 1.999808133582e+002 1.968601548314e+002 1.994792697481e+002 1.999875765700e+002 1.999875079273e+002 1.999708876102e+002 1.999362724011e+002 1.998696598239e+002 1.997507197344e+002 1.999999394563e+002 1.999997991366e+002 1.999993738935e+002 1.997506897806e+002 1.998673402329e+002 1.999368211845e+002 1.999702640066e+002 1.999981921659e+002 1.999950520148e+002 1.978712086581e+002 1.985051374594e+002 1.990294685396e+002 1.999950850669e+002 1.999981635978e+002 1.999993633932e+002 1.999997937645e+002 1.999999377367e+002 1.990217403070e+002 1.985138634867e+002 1.978753222910e+002 1.999999818638e+002 1.999999816590e+002 1.993891193360e+002 1.995630224592e+002 1.965601128724e+002 1.971449732208e+002 1.999999933384e+002 1.958798164501e+002 1.999999933639e+002 1.957994943333e+002 1.964918797040e+002 1.972306964292e+002 1.993394120487e+002 1.995924159331e+002 1.999999666210e+002 1.999808158242e+002 1.999998857603e+002 1.999565572843e+002 1.999080868200e+002 1.998182268120e+002 1.996696040787e+002 1.999920808591e+002 1.999996351567e+002 1.999989223234e+002 1.999969955617e+002 1.982090984382e+002 1.987793146612e+002 1.999921002409e+002 1.999969569669e+002 1.999989076899e+002 1.999996342394e+002 1.998181485743e+002 1.999080410716e+002 1.999565300408e+002 1.999998857452e+002 1.999808539453e+002 1.999999666020e+002 1.992251993509e+002 1.987856833919e+002 1.982103629139e+002 1.975131985510e+002 1.999999892589e+002 1.999999893780e+002 1.962009741521e+002 1.975707268713e+002 1.996829157855e+002 1.991836761713e+002 1.999999941211e+002 1.958767904535e+002 1.968690320129e+002 1.961962128625e+002 1.968566010848e+002 1.994561945097e+002 1.993658237419e+002 1.995775160307e+002 1.965059837359e+002 1.971605077136e+002 1.994801487230e+002 1.999999842510e+002 1.999994466562e+002 1.999997579479e+002 1.999983896971e+002 1.999999262375e+002 1.999956249677e+002 1.999735832977e+002 1.998798248825e+002 1.997683403567e+002 1.999421441622e+002 1.979706563123e+002 1.989645705291e+002 1.984394693912e+002 1.999860720953e+002 1.994792482809e+002 1.999999944452e+002 1.962653978700e+002 1.999999944457e+002 1.961779321110e+002 1.999751839662e+002 1.999449568574e+002 1.998859400752e+002 1.997790150294e+002 1.999940491197e+002 1.999851904829e+002 1.999895514524e+002 1.999977583549e+002 1.991050771198e+002 1.999992122030e+002 1.986239560671e+002 1.999997416881e+002 1.980087342594e+002 1.999999209824e+002 1.999999205152e+002 1.999999516552e+002 1.999997402564e+002 1.999998362114e+002 1.999992012138e+002 1.999994817568e+002 1.999977289646e+002 1.999984856701e+002 1.980227905979e+002 1.999958691840e+002 1.999940464119e+002 1.986315651664e+002 1.984038120097e+002 1.997792120532e+002 1.998864277947e+002 1.999454414234e+002 1.998518483701e+002 1.999266052816e+002 1.999750531000e+002 1.999660447765e+002 1.989536185202e+002 1.999895543278e+002 1.999855345305e+002 1.999999510595e+002 1.977373694574e+002 1.999998314257e+002 1.984130542029e+002 1.999994728758e+002 1.989443820561e+002 1.999984612055e+002 1.997154882364e+002 1.998499558756e+002 1.999256037796e+002 1.999654552413e+002 1.999958100111e+002 1.968116727044e+002 1.999999770106e+002 1.999999768239e+002 1.995985612186e+002 1.993291507244e+002 1.972911914203e+002 1.999894356509e+002 1.999268247389e+002 1.999662201354e+002 1.998524902190e+002 1.997159518329e+002 1.977446212733e+002 1.986173436932e+002 1.999999504992e+002 1.991015676972e+002 1.999998333203e+002 1.999992227100e+002 1.999941182027e+002 1.999977864170e+002 1.977735065649e+002 1.999999852089e+002 1.999999852066e+002 1.995384900284e+002 1.964369331963e+002 1.999999774042e+002 1.999904953374e+002 1.999934519587e+002 1.999975160982e+002 1.991434191760e+002 1.999991209172e+002 1.986796461017e+002 1.998409257466e+002 1.999206520605e+002 1.999630136108e+002 1.999999564914e+002 1.976699168513e+002 1.999998545021e+002 1.970835274300e+002 1.997056986613e+002 1.999999922729e+002 1.999999921328e+002 1.999999739329e+002 1.997309609338e+002 1.990763354560e+002 1.996231600141e+002 1.992946571628e+002 1.959521537121e+002 1.973688526117e+002 1.963362442376e+002 1.966275843518e+002 1.973691201369e+002 1.999768824341e+002 1.999485188162e+002 1.998926737534e+002 1.997908424427e+002 1.999997159046e+002 1.980656352670e+002 1.999999126358e+002 1.999839722572e+002 1.999962343031e+002 1.999997117723e+002 1.999986416297e+002 1.999999112749e+002 1.999995384248e+002 1.999772099369e+002 1.999485088395e+002 1.998934522162e+002 1.997922089472e+002 1.980749418021e+002 1.988934956427e+002 1.983414325820e+002 1.983411886719e+002 1.999995382029e+002 1.988885050190e+002 1.999986402236e+002 1.999962662349e+002 1.999839623177e+002 1.999999944971e+002 1.999999945266e+002 1.963319150302e+002 1.961818412008e+002 1.999999925204e+002 1.959651257784e+002 1.999999874921e+002 1.999999878621e+002 1.960511519183e+002 1.999999913965e+002 1.962731014159e+002 1.959927962299e+002 1.992819857532e+002 1.996325646520e+002 1.974301769345e+002 1.963872892767e+002 1.992471943900e+002 1.970382834959e+002 1.970153645492e+002 1.996530513198e+002 1.967282190749e+002 1.993700041963e+002 1.995345784056e+002 1.966573291333e+002 1.986560008693e+002 1.999937668852e+002 1.999976249863e+002 1.999991619508e+002 1.999998498554e+002 1.999999555452e+002 1.999900259195e+002 1.997088893273e+002 1.998450842962e+002 1.999229373594e+002 1.999641742225e+002 1.994171674508e+002 1.970369142413e+002 1.995420775506e+002 1.994054707544e+002 1.999999750914e+002 1.999999909549e+002 1.976982623823e+002 1.991161516425e+002 1.960667712049e+002 1.958604482355e+002 1.999999931030e+002 1.967002992925e+002 1.999794968499e+002 1.999538080475e+002 1.999027946731e+002 1.998087772079e+002 1.999925714440e+002 1.999915812614e+002 1.999820868306e+002 1.999971834382e+002 1.999989943542e+002 1.991956406136e+002 1.999996650720e+002 1.987455293348e+002 1.999998959321e+002 1.981598216018e+002 1.999999633031e+002 1.999998953475e+002 1.999996660314e+002 1.999989990140e+002 1.999971952336e+002 1.981590732015e+002 1.987433337956e+002 1.998094310008e+002 1.999027193209e+002 1.999537688942e+002 1.999999631413e+002 1.975710223404e+002 1.996800052116e+002 1.999999670556e+002 1.999999884985e+002 1.999999885019e+002 1.976197403559e+002 1.973419630250e+002 1.962556145577e+002 1.995209739496e+002 1.999999435564e+002 1.999998120418e+002 1.999993048088e+002 1.999980059544e+002 1.999946005119e+002 1.978199323972e+002 1.985599834129e+002 1.990567931700e+002 1.999690570948e+002 1.998628646624e+002 1.997392134429e+002 1.999317567435e+002 1.999885531007e+002 1.999999799747e+002 1.999999935941e+002 1.999999935944e+002 1.999998824061e+002 1.999989339645e+002 1.999970259333e+002 1.987741358288e+002 1.998210602056e+002 1.999096667580e+002 1.999573726987e+002 1.958132763477e+002 1.994358883503e+002 1.999922852201e+002 1.999919021122e+002 1.996689879486e+002 1.999999947262e+002 1.970912825952e+002 1.991569197003e+002 1.996978113048e+002 1.999950269889e+002 1.999981509154e+002 1.999993586687e+002 1.999999377473e+002 1.999997938730e+002 1.990246989765e+002 1.985176977538e+002 1.978750440152e+002 1.999362698782e+002 1.999708865971e+002 1.997506920558e+002 1.998696507900e+002 1.999999377307e+002 1.999997938269e+002 1.998696260691e+002 1.999363702409e+002 1.999993623043e+002 1.999709058539e+002 1.999981607591e+002 1.999950578564e+002 1.985148948480e+002 1.999876349886e+002 1.999875758744e+002 1.969695507861e+002 1.992955589073e+002 1.969256073442e+002 1.997181592765e+002 1.994890976636e+002 1.999999859359e+002 1.999999856877e+002 1.995868715231e+002 1.996052194757e+002 1.995068235464e+002 1.999930090895e+002 1.999785291328e+002 1.999828867862e+002 1.999910677097e+002 1.999608785333e+002 1.999164811990e+002 1.998333476304e+002 1.999965317140e+002 1.982949727116e+002 1.988521790601e+002 1.999998675410e+002 1.999995753040e+002 1.999987433848e+002 1.999998661286e+002 1.982944896763e+002 1.999995753636e+002 1.988520833825e+002 1.998333598128e+002 1.999164891809e+002 1.999602546500e+002 1.999987435005e+002 1.999965319423e+002 1.959013187455e+002 1.963726683024e+002 1.999999937189e+002 1.958536086732e+002 1.999809009188e+002 1.999807296443e+002 1.982081630779e+002 1.982071181885e+002 1.999996363469e+002 1.999996358989e+002 1.999999918820e+002 1.967304483665e+002 1.961432517968e+002 1.975765263679e+002 1.968476632775e+002 1.999999947447e+002 1.971408130980e+002 1.999999947568e+002 1.969446505287e+002 1.965620725714e+002 1.999999715570e+002 1.999999716508e+002 1.999969452565e+002 1.999989031858e+002 1.987877619818e+002 1.999563409948e+002 1.998174758989e+002 1.999076627918e+002 1.999998859315e+002 1.972135927294e+002 1.972322000751e+002 1.963388297360e+002 1.996383063853e+002 1.992714839731e+002 1.963428459484e+002 1.974182421231e+002 1.978988730097e+002 1.993600183404e+002 1.973160589371e+002 1.999999814493e+002 1.999999814521e+002 1.993251228412e+002 1.996155013953e+002 1.999999768367e+002 1.991844706050e+002 1.996210607176e+002 1.995838676631e+002 1.999998343377e+002 1.977383856369e+002 1.999999509594e+002 1.998410689284e+002 1.999205864914e+002 1.999630528958e+002 1.999905685217e+002 1.986268174748e+002 1.999992077635e+002 1.991066828377e+002 1.999977465141e+002 1.999933866384e+002 1.999999664246e+002 1.970195658143e+002 1.995390390360e+002 1.994468604938e+002 1.992236003862e+002 1.965715269158e+002 1.999999947753e+002 1.973950221025e+002 1.999999947756e+002 1.975386386800e+002 1.959980274855e+002 1.975181757207e+002 1.994731094955e+002 1.993615024925e+002 1.999999919959e+002 1.989999252435e+002 1.997569647145e+002 1.972234142393e+002 1.996422902073e+002 1.967613319782e+002 1.999958501183e+002 1.999984771251e+002 1.999994787258e+002 1.989394926912e+002 1.984067845948e+002 1.999995434160e+002 1.999999101515e+002 1.999986553236e+002 1.999997085020e+002 1.999963062484e+002 1.983346969811e+002 1.988833366059e+002 1.980812925704e+002 1.997934276336e+002 1.999493458186e+002 1.998941222695e+002 1.999773355058e+002 1.999999201089e+002 1.999997390115e+002 1.980149382365e+002 1.999853963302e+002 1.997774761231e+002 1.998850572094e+002 1.999444882763e+002 1.999749522045e+002 1.999838389724e+002 1.999875776819e+002 1.999708730098e+002 1.998696178649e+002 1.999362659725e+002 1.997506621082e+002 1.999999377686e+002 1.999997938521e+002 1.999993637069e+002 1.999950527713e+002 1.999981645690e+002 1.978765088326e+002 1.985136031126e+002 1.990224032254e+002 1.992665482485e+002 1.973828508763e+002 1.999999917912e+002 1.960244523712e+002 1.999835991373e+002 1.999776140077e+002 1.999498312619e+002 1.998951886114e+002 1.997952826700e+002 1.999997008914e+002 1.999999077834e+002 1.980950171579e+002 1.999995505780e+002 1.999986715702e+002 1.999963425862e+002 1.983253226716e+002 1.988781466739e+002 1.994656981725e+002 1.999999818670e+002 1.994326170283e+002 1.999999841549e+002 1.999873643713e+002 1.999877132336e+002 1.999716019729e+002 1.999376893727e+002 1.998723403841e+002 1.997553581634e+002 1.999999362850e+002 1.999997892215e+002 1.999993438091e+002 1.999981108770e+002 1.999951404996e+002 1.985299978519e+002 1.999949945041e+002 1.998713203997e+002 1.999353531705e+002 1.999713314073e+002 1.999981430395e+002 1.999993557380e+002 1.990264105169e+002 1.999997941641e+002 1.985199706930e+002 1.999999378660e+002 1.978738221507e+002 1.968620173383e+002 1.999997634300e+002 1.979573857377e+002 1.999999280050e+002 1.998792118338e+002 1.999734234091e+002 1.999417326004e+002 1.997672698336e+002 1.984511110202e+002 1.999994338391e+002 1.989736493246e+002 1.999983547723e+002 1.999955291554e+002 1.999863529959e+002 1.961542437487e+002 1.999999947606e+002 1.973463925338e+002 1.999999871550e+002 1.999999907158e+002 1.999999907130e+002 1.994231195711e+002 1.995309039493e+002 1.971919394927e+002 1.978902570118e+002 1.999999741606e+002 1.961074578715e+002 1.999999814215e+002 1.999999813297e+002 1.974834853606e+002 1.999933546721e+002 1.999974823289e+002 1.991502276246e+002 1.999991081282e+002 1.986869587982e+002 1.999633441474e+002 1.999206444042e+002 1.998421195277e+002 1.999905468767e+002 1.999999575811e+002 1.976449763301e+002 1.999998568263e+002 1.992217756637e+002 1.996666276604e+002 1.993942412698e+002 1.965346236294e+002 1.963016007454e+002 1.999999942143e+002 1.959301672986e+002 1.999999942137e+002 1.958192352334e+002 1.997584498317e+002 1.990016966104e+002 1.996975113386e+002 1.966337252989e+002 1.999999604331e+002 1.958757495804e+002 1.993349866034e+002 1.995681821729e+002 1.993869101955e+002 1.971586498625e+002 1.965445925735e+002 1.968897258600e+002 1.990924623656e+002 1.965412484809e+002 1.970069291931e+002 1.994139965119e+002 1.962024511551e+002 1.964251407327e+002 1.995014197791e+002 1.993074979007e+002 1.995753953009e+002 1.993548658537e+002 1.999999893690e+002 1.960015640087e+002 1.977111513547e+002 1.999887364595e+002 1.999910036778e+002 1.999999602429e+002 1.999998655675e+002 1.999999466249e+002 1.999998203420e+002 1.999991121910e+002 1.999974929642e+002 1.986853706423e+002 1.999945116516e+002 1.999930619652e+002 1.997292069110e+002 1.996939879312e+002 1.998572889604e+002 1.998344706668e+002 1.999171025464e+002 1.999296028628e+002 1.999675248745e+002 1.999611847617e+002 1.958160245851e+002 1.999999932947e+002 1.999999932778e+002 1.999999941523e+002 1.999999941522e+002 1.957985972392e+002 1.999999939204e+002 1.999755847356e+002 1.999457728288e+002 1.998874766015e+002 1.997817006432e+002 1.999850123599e+002 1.999897361110e+002 1.999939446304e+002 1.999977158356e+002 1.991130470104e+002 1.999991962468e+002 1.986345281762e+002 1.999997361589e+002 1.980216954830e+002 1.999999191931e+002 1.999999191825e+002 1.999997361289e+002 1.999999522711e+002 1.999991954707e+002 1.999977136560e+0