<?xml version="1.0"?>
<VTKFile type="UnstructuredGrid" version="0.1" byte_order="LittleEndian">
  <UnstructuredGrid>
    <Piece NumberOfPoints="2604" NumberOfCells="4910">
      <Points>
        <DataArray type="Float64" NumberOfComponents="3" format="ascii">
          0.000000000000e+000 0.000000000000e+000 0.000000000000e+000
          2.000000000000e+002 0.000000000000e+000 0.000000000000e+000
          2.000000000000e+002 2.000000000000e+001 0.000000000000e+000
          0.000000000000e+000 2.000000000000e+001 0.000000000000e+000
          1.492537313427e+000 0.000000000000e+000 0.000000000000e+000
          2.985074626854e+000 0.000000000000e+000 0.000000000000e+000
          4.477611940281e+000 0.000000000000e+000 0.000000000000e+000
          5.970149253708e+000 0.000000000000e+000 0.000000000000e+000
          7.462686567135e+000 0.000000000000e+000 0.000000000000e+000
          8.955223880561e+000 0.000000000000e+000 0.000000000000e+000
          1.044776119399e+001 0.000000000000e+000 0.000000000000e+000
          1.194029850741e+001 0.000000000000e+000 0.000000000000e+000
          1.343283582084e+001 0.000000000000e+000 0.000000000000e+000
          1.492537313427e+001 0.000000000000e+000 0.000000000000e+000
          1.641791044770e+001 0.000000000000e+000 0.000000000000e+000
          1.791044776112e+001 0.000000000000e+000 0.000000000000e+000
          1.940298507455e+001 0.000000000000e+000 0.000000000000e+000
          2.089552238798e+001 0.000000000000e+000 0.000000000000e+000
          2.238805970141e+001 0.000000000000e+000 0.000000000000e+000
          2.388059701484e+001 0.000000000000e+000 0.000000000000e+000
          2.537313432826e+001 0.000000000000e+000 0.000000000000e+000
          2.686567164169e+001 0.000000000000e+000 0.000000000000e+000
          2.835820895511e+001 0.000000000000e+000 0.000000000000e+000
          2.985074626854e+001 0.000000000000e+000 0.000000000000e+000
          3.134328358196e+001 0.000000000000e+000 0.000000000000e+000
          3.283582089539e+001 0.000000000000e+000 0.000000000000e+000
          3.432835820881e+001 0.000000000000e+000 0.000000000000e+000
          3.582089552224e+001 0.000000000000e+000 0.000000000000e+000
          3.731343283566e+001 0.000000000000e+000 0.000000000000e+000
          3.880597014909e+001 0.000000000000e+000 0.000000000000e+000
          4.029850746251e+001 0.000000000000e+000 0.000000000000e+000
          4.179104477594e+001 0.000000000000e+000 0.000000000000e+000
          4.328358208936e+001 0.000000000000e+000 0.000000000000e+000
          4.477611940279e+001 0.000000000000e+000 0.000000000000e+000
          4.626865671621e+001 0.000000000000e+000 0.000000000000e+000
          4.776119402964e+001 0.000000000000e+000 0.000000000000e+000
          4.925373134306e+001 0.000000000000e+000 0.000000000000e+000
          5.074626865649e+001 0.000000000000e+000 0.000000000000e+000
          5.223880596991e+001 0.000000000000e+000 0.000000000000e+000
          5.373134328334e+001 0.000000000000e+000 0.000000000000e+000
          5.522388059676e+001 0.000000000000e+000 0.000000000000e+000
          5.671641791019e+001 0.000000000000e+000 0.000000000000e+000
          5.820895522361e+001 0.000000000000e+000 0.000000000000e+000
          5.970149253704e+001 0.000000000000e+000 0.000000000000e+000
          6.119402985046e+001 0.000000000000e+000 0.000000000000e+000
          6.268656716389e+001 0.000000000000e+000 0.000000000000e+000
          6.417910447732e+001 0.000000000000e+000 0.000000000000e+000
          6.567164179075e+001 0.000000000000e+000 0.000000000000e+000
          6.716417910418e+001 0.000000000000e+000 0.000000000000e+000
          6.865671641761e+001 0.000000000000e+000 0.000000000000e+000
          7.014925373104e+001 0.000000000000e+000 0.000000000000e+000
          7.164179104447e+001 0.000000000000e+000 0.000000000000e+000
          7.313432835790e+001 0.000000000000e+000 0.000000000000e+000
          7.462686567133e+001 0.000000000000e+000 0.000000000000e+000
          7.611940298476e+001 0.000000000000e+000 0.000000000000e+000
          7.761194029819e+001 0.000000000000e+000 0.000000000000e+000
          7.910447761162e+001 0.000000000000e+000 0.000000000000e+000
          8.059701492505e+001 0.000000000000e+000 0.000000000000e+000
          8.208955223848e+001 0.000000000000e+000 0.000000000000e+000
          8.358208955191e+001 0.000000000000e+000 0.000000000000e+000
          8.507462686534e+001 0.000000000000e+000 0.000000000000e+000
          8.656716417877e+001 0.000000000000e+000 0.000000000000e+000
          8.805970149220e+001 0.000000000000e+000 0.000000000000e+000
          8.955223880563e+001 0.000000000000e+000 0.000000000000e+000
          9.104477611907e+001 0.000000000000e+000 0.000000000000e+000
          9.253731343250e+001 0.000000000000e+000 0.000000000000e+000
          9.402985074593e+001 0.000000000000e+000 0.000000000000e+000
          9.552238805936e+001 0.000000000000e+000 0.000000000000e+000
          9.701492537279e+001 0.000000000000e+000 0.000000000000e+000
          9.850746268622e+001 0.000000000000e+000 0.000000000000e+000
          9.999999999965e+001 0.000000000000e+000 0.000000000000e+000
          1.014925373131e+002 0.000000000000e+000 0.000000000000e+000
          1.029850746265e+002 0.000000000000e+000 0.000000000000e+000
          1.044776119399e+002 0.000000000000e+000 0.000000000000e+000
          1.059701492534e+002 0.000000000000e+000 0.000000000000e+000
          1.074626865668e+002 0.000000000000e+000 0.000000000000e+000
          1.089552238802e+002 0.000000000000e+000 0.000000000000e+000
          1.104477611937e+002 0.000000000000e+000 0.000000000000e+000
          1.119402985071e+002 0.000000000000e+000 0.000000000000e+000
          1.134328358205e+002 0.000000000000e+000 0.000000000000e+000
          1.149253731340e+002 0.000000000000e+000 0.000000000000e+000
          1.164179104474e+002 0.000000000000e+000 0.000000000000e+000
          1.179104477608e+002 0.000000000000e+000 0.000000000000e+000
          1.194029850742e+002 0.000000000000e+000 0.000000000000e+000
          1.208955223877e+002 0.000000000000e+000 0.000000000000e+000
          1.223880597011e+002 0.000000000000e+000 0.000000000000e+000
          1.238805970145e+002 0.000000000000e+000 0.000000000000e+000
          1.253731343280e+002 0.000000000000e+000 0.000000000000e+000
          1.268656716414e+002 0.000000000000e+000 0.000000000000e+000
          1.283582089548e+002 0.000000000000e+000 0.000000000000e+000
          1.298507462683e+002 0.000000000000e+000 0.000000000000e+000
          1.313432835817e+002 0.000000000000e+000 0.000000000000e+000
          1.328358208952e+002 0.000000000000e+000 0.000000000000e+000
          1.343283582086e+002 0.000000000000e+000 0.000000000000e+000
          1.358208955220e+002 0.000000000000e+000 0.000000000000e+000
          1.373134328355e+002 0.000000000000e+000 0.000000000000e+000
          1.388059701489e+002 0.000000000000e+000 0.000000000000e+000
          1.402985074624e+002 0.000000000000e+000 0.000000000000e+000
          1.417910447758e+002 0.000000000000e+000 0.000000000000e+000
          1.432835820892e+002 0.000000000000e+000 0.000000000000e+000
          1.447761194027e+002 0.000000000000e+000 0.000000000000e+000
          1.462686567161e+002 0.000000000000e+000 0.000000000000e+000
          1.477611940296e+002 0.000000000000e+000 0.000000000000e+000
          1.492537313430e+002 0.000000000000e+000 0.000000000000e+000
          1.507462686564e+002 0.000000000000e+000 0.000000000000e+000
          1.522388059699e+002 0.000000000000e+000 0.000000000000e+000
          1.537313432833e+002 0.000000000000e+000 0.000000000000e+000
          1.552238805968e+002 0.000000000000e+000 0.000000000000e+000
          1.567164179102e+002 0.000000000000e+000 0.000000000000e+000
          1.582089552237e+002 0.000000000000e+000 0.000000000000e+000
          1.597014925371e+002 0.000000000000e+000 0.000000000000e+000
          1.611940298505e+002 0.000000000000e+000 0.000000000000e+000
          1.626865671640e+002 0.000000000000e+000 0.000000000000e+000
          1.641791044774e+002 0.000000000000e+000 0.000000000000e+000
          1.656716417909e+002 0.000000000000e+000 0.000000000000e+000
          1.671641791043e+002 0.000000000000e+000 0.000000000000e+000
          1.686567164177e+002 0.000000000000e+000 0.000000000000e+000
          1.701492537312e+002 0.000000000000e+000 0.000000000000e+000
          1.716417910446e+002 0.000000000000e+000 0.000000000000e+000
          1.731343283581e+002 0.000000000000e+000 0.000000000000e+000
          1.746268656715e+002 0.000000000000e+000 0.000000000000e+000
          1.761194029849e+002 0.000000000000e+000 0.000000000000e+000
          1.776119402984e+002 0.000000000000e+000 0.000000000000e+000
          1.791044776118e+002 0.000000000000e+000 0.000000000000e+000
          1.805970149253e+002 0.000000000000e+000 0.000000000000e+000
          1.820895522387e+002 0.000000000000e+000 0.000000000000e+000
          1.835820895521e+002 0.000000000000e+000 0.000000000000e+000
          1.850746268656e+002 0.000000000000e+000 0.000000000000e+000
          1.865671641790e+002 0.000000000000e+000 0.000000000000e+000
          1.880597014925e+002 0.000000000000e+000 0.000000000000e+000
          1.895522388059e+002 0.000000000000e+000 0.000000000000e+000
          1.910447761194e+002 0.000000000000e+000 0.000000000000e+000
          1.925373134328e+002 0.000000000000e+000 0.000000000000e+000
          1.940298507462e+002 0.000000000000e+000 0.000000000000e+000
          1.955223880597e+002 0.000000000000e+000 0.000000000000e+000
          1.970149253731e+002 0.000000000000e+000 0.000000000000e+000
          1.985074626866e+002 0.000000000000e+000 0.000000000000e+000
          2.000000000000e+002 1.428571428570e+000 0.000000000000e+000
          2.000000000000e+002 2.857142857140e+000 0.000000000000e+000
[...]
      <PointData Scalars="MEAN_PRESSURE">
        <DataArray type="Float64" Name="MEAN_PRESSURE" format="ascii">
          2.000000000000e+002 1.988459659198e+002 1.988459645768e+002 2.000000000000e+002 1.995481134802e+002 1.986137198702e+002 1.979648562192e+002 1.974946375862e+002 1.971678046260e+002 1.969538592643e+002 1.968184396098e+002 1.967427456863e+002 1.967075010779e+002 1.966996606502e+002 1.967087650991e+002 1.967284861481e+002 1.967540290385e+002 1.967824776955e+002 1.968120677055e+002 1.968418259171e+002 1.968712895232e+002 1.969002307450e+002 1.969286647845e+002 1.969566516389e+002 1.969842748234e+002 1.970116074575e+002 1.970387234835e+002 1.970656742873e+002 1.970924938762e+002 1.971192099085e+002 1.971458376291e+002 1.971723871699e+002 1.971988593290e+002 1.972252558278e+002 1.972515745413e+002 1.972778114732e+002 1.973039646501e+002 1.973300274163e+002 1.973559970811e+002 1.973818701966e+002 1.974076392021e+002 1.974332979102e+002 1.974588468577e+002 1.974842783336e+002 1.975095897439e+002 1.975347756059e+002 1.975598341497e+002 1.975847534837e+002 1.976095399804e+002 1.976341806920e+002 1.976586733067e+002 1.976830153970e+002 1.977072058731e+002 1.977312282719e+002 1.977550910805e+002 1.977787864857e+002 1.978023123648e+002 1.978256583121e+002 1.978488230745e+002 1.978718126774e+002 1.978946046579e+002 1.979172058001e+002 1.979396112933e+002 1.979618211096e+002 1.979838258398e+002 1.980056234354e+002 1.980272109180e+002 1.980485823689e+002 1.980697381387e+002 1.980906695724e+002 1.981113805916e+002 1.981318584192e+002 1.981521072299e+002 1.981721195572e+002 1.981918920007e+002 1.982114249230e+002 1.982307095995e+002 1.982497504182e+002 1.982685373823e+002 1.982870707014e+002 1.983053424583e+002 1.983233578146e+002 1.983411066153e+002 1.983585912340e+002 1.983758045040e+002 1.983927448831e+002 1.984094114746e+002 1.984257998158e+002 1.984419073389e+002 1.984577320052e+002 1.984732711912e+002 1.984885228894e+002 1.985034847648e+002 1.985181522156e+002 1.985325215071e+002 1.985465969285e+002 1.985603690494e+002 1.985738394587e+002 1.985870064019e+002 1.985998688046e+002 1.986124214486e+002 1.986246607932e+002 1.986365916717e+002 1.986482045639e+002 1.986595016240e+002 1.986704815324e+002 1.986811436594e+002 1.986914830173e+002 1.987014963668e+002 1.987111891651e+002 1.987205518904e+002 1.987295870211e+002 1.987382943713e+002 1.987466744361e+002 1.987547203276e+002 1.987624300147e+002 1.987698100478e+002 1.987768507253e+002 1.987835549584e+002 1.987899225833e+002 1.987959548012e+002 1.988016472681e+002 1.988069963437e+002 1.988120040224e+002 1.988166690594e+002 1.988209881608e+002 1.988249677782e+002 1.988286070716e+002 1.988318962320e+002 1.988348475357e+002 1.988374579232e+002 1.988397046432e+002 1.988416106662e+002 1.988431717444e+002 1.988444055260e+002 1.988452392068e+002 1.988457758179e+002 1.988459473489e+002 1.988459300563e+002 1.988459676115e+002 1.988459600758e+002 1.988459563826e+002 1.988459496059e+002 1.988459451589e+002 1.988459482421e+002 1.988459485978e+002 1.988459401165e+002 1.988459635545e+002 1.988459279252e+002 1.988459458665e+002 1.988457746081e+002 1.988452382457e+002 1.988444046941e+002 1.988431709237e+002 1.988416100325e+002 1.988397051089e+002 1.988374594529e+002 1.988348492820e+002 1.988318978656e+002 1.988286085902e+002 1.988249681440e+002 1.988209887988e+002 1.988166688547e+002 1.988120029152e+002 1.988069955229e+002 1.988016456260e+002 1.987959527553e+002 1.987899269605e+002 1.987835585470e+002 1.987768516353e+002 1.987698098254e+002 1.987624310831e+002 1.987547174868e+002 1.987466739535e+002 1.987382967856e+002 1.987295902773e+002 1.987205518677e+002 1.987111881524e+002 1.987014944683e+002 1.986914819006e+002 1.986811421523e+002 1.986704821056e+002 1.986595027090e+002 1.986482023839e+002 1.986365902591e+002 1.986246594056e+002 1.986124210646e+002 1.985998679469e+002 1.985870072232e+002 1.985738403719e+002 1.985603667273e+002 1.985465956035e+002 1.985325206024e+002 1.985181523596e+002 1.985034845656e+002 1.984885211304e+002 1.984732719808e+002 1.984577325623e+002 1.984419076095e+002 1.984257998244e+002 1.984094123112e+002 1.983927477713e+002 1.983758068510e+002 1.983585910806e+002 1.983411093555e+002 1.983233579744e+002 1.983053430520e+002 1.982870682492e+002 1.982685383340e+002 1.982497501790e+002 1.982307123298e+002 1.982114260195e+002 1.981918928462e+002 1.981721180028e+002 1.981521056137e+002 1.981318593298e+002 1.981113796849e+002 1.980906713375e+002 1.980697371871e+002 1.980485822834e+002 1.980272091742e+002 1.980056223955e+002 1.979838260597e+002 1.979618213994e+002 1.979396132900e+002 1.979172050032e+002 1.978946016985e+002 1.978718062905e+002 1.978488233474e+002 1.978256578514e+002 1.978023112268e+002 1.977787882247e+002 1.977550922637e+002 1.977312287853e+002 1.977072008465e+002 1.976830137764e+002 1.976586714592e+002 1.976341747583e+002 1.976095352219e+002 1.975847521269e+002 1.975598287539e+002 1.975347728041e+002 1.975095834036e+002 1.974842687967e+002 1.974588344332e+002 1.974332817211e+002 1.974076161502e+002 1.973818426817e+002 1.973559645133e+002 1.973299854392e+002 1.973039116582e+002 1.972777446351e+002 1.972514891038e+002 1.972251480387e+002 1.971987235650e+002 1.971722149563e+002 1.971456200063e+002 1.971189343681e+002 1.970921440290e+002 1.970652310918e+002 1.970381656111e+002 1.970109048295e+002 1.969833857553e+002 1.969555283343e+002 1.969272387479e+002 1.968984178091e+002 1.968689940436e+002 1.968389557318e+002 1.968084765096e+002 1.967779759273e+002 1.967484017446e+002 1.967215235919e+002 1.967002364423e+002 1.966888617003e+002 1.966949789322e+002 1.967282932709e+002 1.968025985586e+002 1.969334294620e+002 1.971494322561e+002 1.974781911839e+002 1.979467937146e+002 1.986020885871e+002 1.995326222176e+002 2.000000000000e+002 2.000000000000e+002 2.000000000000e+002 2.000000000000e+002 2.000000000000e+002 2.000000000000e+002 2.000000000000e+002 2.000000000000e+002 2.000000000000e+002 2.000000000000e+002 2.000000000000e+002 2.000000000000e+002 2.000000000000e+002 1.988381426932e+002 1.968517266404e+002 1.988145266141e+002 1.987735057685e+002 1.987153195796e+002 1.986417049411e+002 1.985526521148e+002 1.969136884208e+002 1.984498491058e+002 1.971073738209e+002 1.972925043286e+002 1.974747364953e+002 1.977411442802e+002 1.979059232871e+002 1.980591817642e+002 1.982016832110e+002 1.983322585275e+002 1.967399370818e+002 1.976095386298e+002 1.983927412614e+002 1.983919689119e+002 1.982685378244e+002 1.981318587558e+002 1.979838265384e+002 1.978256591287e+002 1.987968419946e+002 1.987479156576e+002 1.986823669247e+002 1.978256556977e+002 1.979798942847e+002 1.981335013666e+002 1.982651846558e+002 1.986013532523e+002 1.985034790966e+002 1.970100773447e+002 1.971957131878e+002 1.973847710675e+002 1.985041716907e+002 1.985999908078e+002 1.986812433898e+002 1.987466658131e+002 1.987959462360e+002 1.973815840862e+002 1.971984845909e+002 1.970110583677e+002 1.988282434768e+002 1.988280250052e+002 1.975562552075e+002 1.976651995489e+002 1.966912304144e+002 1.968132814503e+002 1.988432231380e+002 1.974898462925e+002 1.988432663814e+002 1.974926369653e+002 1.966999402345e+002 1.968373668521e+002 1.975290454648e+002 1.976864752395e+002 1.988143835535e+002 1.983322607932e+002 1.987733666196e+002 1.982016891746e+002 1.980591875916e+002 1.979059277644e+002 1.977482461956e+002 1.984496963076e+002 1.987160705272e+002 1.986434648972e+002 1.985547423567e+002 1.971053212282e+002 1.972885584919e+002 1.984500023488e+002 1.985535140993e+002 1.986424316618e+002 1.987159055625e+002 1.979058881800e+002 1.980591493767e+002 1.982016516778e+002 1.987733666778e+002 1.983325810724e+002 1.988143778508e+002 1.974715692234e+002 1.972908462503e+002 1.971055957060e+002 1.969131227829e+002 1.988371593524e+002 1.988373218469e+002 1.967982417295e+002 1.969290519062e+002 1.977599373371e+002 1.974520568519e+002 1.988445237919e+002 1.980205812191e+002 1.967429053625e+002 1.968586221018e+002 1.967377433783e+002 1.975953475187e+002 1.975433300765e+002 1.976755941677e+002 1.966945812472e+002 1.968179229848e+002 1.976100961121e+002 1.988308956476e+002 1.986904821566e+002 1.987385955338e+002 1.986112051128e+002 1.987901365456e+002 1.985167165719e+002 1.982839603162e+002 1.980019637903e+002 1.978449338653e+002 1.981501292589e+002 1.970374366923e+002 1.973585056501e+002 1.971748885515e+002 1.983774535701e+002 1.976095366250e+002 1.988450776273e+002 1.984765299411e+002 1.988450776018e+002 1.984522198861e+002 1.982936659389e+002 1.981593260721e+002 1.980134077729e+002 1.978571089807e+002 1.984830586403e+002 1.983689480306e+002 1.984153309160e+002 1.985822954531e+002 1.974168612196e+002 1.986665587341e+002 1.972346400939e+002 1.987351881594e+002 1.970479549711e+002 1.987876594950e+002 1.987874169377e+002 1.988039904937e+002 1.987348519163e+002 1.987576794490e+002 1.986655394403e+002 1.986947250794e+002 1.985810707821e+002 1.986163804221e+002 1.970520568203e+002 1.985227028100e+002 1.984830157904e+002 1.972371986528e+002 1.971638370770e+002 1.978572272683e+002 1.980142873457e+002 1.981609326917e+002 1.979546396216e+002 1.981045995364e+002 1.982928476528e+002 1.982435996884e+002 1.973541279225e+002 1.984153744926e+002 1.983721964677e+002 1.988036076804e+002 1.969734715415e+002 1.987563314371e+002 1.971666278857e+002 1.986936139157e+002 1.973504983389e+002 1.986150203873e+002 1.977900621569e+002 1.979516199250e+002 1.981018722813e+002 1.982406734614e+002 1.985211992969e+002 1.967281060798e+002 1.988233368208e+002 1.988231598041e+002 1.976911007190e+002 1.975236759655e+002 1.968529545174e+002 1.984139127627e+002 1.981052069331e+002 1.982444784958e+002 1.979556672123e+002 1.977905408626e+002 1.969756364241e+002 1.972324286665e+002 1.988032703951e+002 1.974153070614e+002 1.987568567541e+002 1.986674995486e+002 1.984843722734e+002 1.985834248273e+002 1.969835939497e+002 1.988320165267e+002 1.988320159002e+002 1.976481952518e+002 1.966949358965e+002 1.988237120443e+002 1.984272660946e+002 1.984721157247e+002 1.985728200312e+002 1.974337483580e+002 1.986586490263e+002 1.972535265972e+002 1.979379468531e+002 1.980891140643e+002 1.982292800797e+002 1.988070947528e+002 1.969553745285e+002 1.987630064710e+002 1.967978416196e+002 1.977807890290e+002 1.988415305066e+002 1.988413172980e+002 1.988204781758e+002 1.978053034229e+002 1.974044420871e+002 1.977100388579e+002 1.975058432203e+002 1.971415094644e+002 1.968742817391e+002 1.967229293318e+002 1.967010737310e+002 1.968749584455e+002 1.983044832799e+002 1.981714899069e+002 1.980265289639e+002 1.978710819496e+002 1.987300488956e+002 1.970639838578e+002 1.987839086683e+002 1.983578769184e+002 1.985321356280e+002 1.987292329612e+002 1.986251784896e+002 1.987833000734e+002 1.987019163115e+002 1.983066467247e+002 1.981714344482e+002 1.980281050414e+002 1.978727611248e+002 1.970666750643e+002 1.973307550191e+002 1.971446618737e+002 1.971445698566e+002 1.987019097585e+002 1.973289078136e+002 1.986251630442e+002 1.985331123808e+002 1.983578640251e+002 1.988451660795e+002 1.988452174334e+002 1.985602306366e+002 1.984671548340e+002 1.988419206377e+002 1.972000529459e+002 1.988348232660e+002 1.988353055209e+002 1.969750769459e+002 1.988402046844e+002 1.967738630649e+002 1.972379979086e+002 1.974993850718e+002 1.977173912276e+002 1.968911988508e+002 1.967277303196e+002 1.974821958050e+002 1.967841698685e+002 1.967793058613e+002 1.977341804154e+002 1.967129191459e+002 1.975455999478e+002 1.976455245789e+002 1.966984706519e+002 1.972454407277e+002 1.984776866789e+002 1.985769354006e+002 1.986620884822e+002 1.987615794883e+002 1.988064581898e+002 1.984211350938e+002 1.977837689973e+002 1.979441754700e+002 1.980949281786e+002 1.982346290921e+002 1.975722313430e+002 1.967843434612e+002 1.976506185452e+002 1.975654419329e+002 1.988215250989e+002 1.988395556687e+002 1.969632205990e+002 1.974216877934e+002 1.970268336165e+002 1.973786893704e+002 1.988428431877e+002 1.967069010853e+002 1.983225098020e+002 1.981909611360e+002 1.980475767396e+002 1.978935295651e+002 1.984573461897e+002 1.984422879728e+002 1.983422059663e+002 1.985609987883e+002 1.986487322809e+002 1.974576355785e+002 1.987209737743e+002 1.972765134316e+002 1.987771630868e+002 1.970908934892e+002 1.988118834812e+002 1.987769229742e+002 1.987211222862e+002 1.986490850869e+002 1.985614175224e+002 1.970907952460e+002 1.972757621748e+002 1.978943581774e+002 1.980474088410e+002 1.981908062805e+002 1.988117687976e+002 1.969286231935e+002 1.977573543764e+002 1.988147323253e+002 1.988361435748e+002 1.988361458697e+002 1.969422451634e+002 1.968672321225e+002 1.967599304136e+002 1.976364331816e+002 1.987991500051e+002 1.987511751847e+002 1.986752623768e+002 1.985927658218e+002 1.984938920607e+002 1.969959848172e+002 1.972134436618e+002 1.973961658629e+002 1.982587426703e+002 1.979723429192e+002 1.978136663831e+002 1.981187143906e+002 1.984034966474e+002 1.988262539922e+002 1.988436423582e+002 1.988436434118e+002 1.987721613313e+002 1.986442873034e+002 1.985557181791e+002 1.972866927930e+002 1.979097673271e+002 1.980627806199e+002 1.982050050834e+002 1.976390037453e+002 1.975831864739e+002 1.984528011809e+002 1.984469798215e+002 1.977476987142e+002 1.988455648675e+002 1.990214049807e+002 1.974398217977e+002 1.977733891065e+002 1.985029277020e+002 1.985993897298e+002 1.986807463617e+002 1.987959484349e+002 1.987466869053e+002 1.973828011648e+002 1.971997099088e+002 1.970109226567e+002 1.981318576154e+002 1.982685370234e+002 1.978256558372e+002 1.979838245415e+002 1.987959448774e+002 1.987466688211e+002 1.979838200751e+002 1.981322074293e+002 1.986811343237e+002 1.982687044829e+002 1.985998606228e+002 1.985036166746e+002 1.971988529872e+002 1.983933663545e+002 1.983927405240e+002 1.967662409078e+002 1.975063094523e+002 1.967570119627e+002 1.977927197939e+002 1.976157454137e+002 1.988328945082e+002 1.988325960998e+002 1.976824282762e+002 1.976961695361e+002 1.976271141772e+002 1.984644750042e+002 1.983156119575e+002 1.983486880281e+002 1.984349875651e+002 1.982197790187e+002 1.980788002438e+002 1.979269012675e+002 1.985405554715e+002 1.971307070416e+002 1.973152254240e+002 1.987671419165e+002 1.987070412066e+002 1.986314769256e+002 1.987666643385e+002 1.971304727205e+002 1.987070440187e+002 1.973151799665e+002 1.979269029579e+002 1.980788019978e+002 1.982170959571e+002 1.986314788398e+002 1.985405564246e+002 1.977588318592e+002 1.967101126906e+002 1.988438509946e+002 1.977169433004e+002 1.983329099965e+002 1.983316113296e+002 1.971050170539e+002 1.971046710932e+002 1.987162453771e+002 1.987161668573e+002 1.988409349560e+002 1.967110006882e+002 1.969432192245e+002 1.969304721564e+002 1.967354416726e+002 1.988455974869e+002 1.991088735502e+002 1.988456181750e+002 1.990461312577e+002 1.966955339146e+002 1.988184154778e+002 1.988184982836e+002 1.985531278374e+002 1.986421058128e+002 1.972915946380e+002 1.982008304251e+002 1.979049339936e+002 1.980582558267e+002 1.987734374014e+002 1.968321594145e+002 1.968379949066e+002 1.967329656444e+002 1.977220768422e+002 1.974941758068e+002 1.967427937430e+002 1.968874123775e+002 1.970177194304e+002 1.975401900126e+002 1.968598318334e+002 1.988277901117e+002 1.988277906162e+002 1.975215538331e+002 1.977040513115e+002 1.988231613109e+002 1.974524306838e+002 1.977083994994e+002 1.976802220115e+002 1.987571532993e+002 1.969737944616e+002 1.988035561013e+002 1.979381711203e+002 1.980889451825e+002 1.982294723782e+002 1.984282399150e+002 1.972356042257e+002 1.986661626197e+002 1.974175501249e+002 1.985818200670e+002 1.984709478699e+002 1.988142535189e+002 1.967801906847e+002 1.976485613523e+002 1.975897208686e+002 1.974708334142e+002 1.966925293626e+002 1.988456505357e+002 1.991733856352e+002 1.988456517952e+002 1.992425146600e+002 1.970509329806e+002 1.969145923111e+002 1.976057351742e+002 1.975409721210e+002 1.988411098862e+002 1.973726473325e+002 1.978323878944e+002 1.968352306924e+002 1.977253514217e+002 1.967204891910e+002 1.985222479873e+002 1.986159142916e+002 1.986943463188e+002 1.973486021918e+002 1.971647037722e+002 1.987026454419e+002 1.987828645296e+002 1.986260760749e+002 1.987286699188e+002 1.985341938973e+002 1.971426676520e+002 1.973269545156e+002 1.970685257124e+002 1.978742180439e+002 1.981744554764e+002 1.980294272780e+002 1.983074773415e+002 1.987872588783e+002 1.987346424017e+002 1.970497120771e+002 1.983709350929e+002 1.978553579897e+002 1.980117616738e+002 1.981577989251e+002 1.982922690491e+002 1.983567980090e+002 1.983927431075e+002 1.982685275023e+002 1.979838184377e+002 1.981318567109e+002 1.978256526207e+002 1.987959511141e+002 1.987466700705e+002 1.986812870833e+002 1.985034816752e+002 1.986000447409e+002 1.970114906541e+002 1.971984219964e+002 1.973818264822e+002 1.974917659892e+002 1.968785622402e+002 1.988407992899e+002 1.970451752844e+002 1.983547400443e+002 1.983093505365e+002 1.981761993090e+002 1.980316189216e+002 1.978765072129e+002 1.987272792437e+002 1.987818843053e+002 1.970723603878e+002 1.987036548122e+002 1.986270756521e+002 1.985352404073e+002 1.971398293705e+002 1.973250022726e+002 1.976011756506e+002 1.988282461252e+002 1.975812739358e+002 1.988307948078e+002 1.983905045110e+002 1.983941919738e+002 1.982725521580e+002 1.981361778723e+002 1.979885431726e+002 1.978306701221e+002 1.987951685281e+002 1.987455753640e+002 1.986791959654e+002 1.985975159406e+002 1.985054423317e+002 1.972037138676e+002 1.985022035912e+002 1.979867306013e+002 1.981291493174e+002 1.982710108901e+002 1.985990342337e+002 1.986804517157e+002 1.973835178160e+002 1.987467705627e+002 1.972004536389e+002 1.987960207701e+002 1.970106168525e+002 1.967407937494e+002 1.987397474268e+002 1.970337035425e+002 1.987909735186e+002 1.980008444531e+002 1.982830110589e+002 1.981487447486e+002 1.978437434238e+002 1.971785631427e+002 1.986890419986e+002 1.973621175282e+002 1.986094552775e+002 1.985143966325e+002 1.983801774254e+002 1.968808924262e+002 1.988456249772e+002 1.991204065633e+002 1.988344011243e+002 1.988392088548e+002 1.988392065647e+002 1.975757031913e+002 1.976430732722e+002 1.968258266509e+002 1.970153380673e+002 1.988206977300e+002 1.968973879757e+002 1.988277702238e+002 1.988276707882e+002 1.969057316842e+002 1.984703870597e+002 1.985715505296e+002 1.974367940213e+002 1.986575868358e+002 1.972560384801e+002 1.982308458241e+002 1.980891349726e+002 1.979397723645e+002 1.984279758288e+002 1.988078353375e+002 1.969487414155e+002 1.987637210816e+002 1.974698957561e+002 1.977456227399e+002 1.975590849065e+002 1.966998188850e+002 1.967715541964e+002 1.988446818337e+002 1.981603894851e+002 1.988446814619e+002 1.981110691620e+002 1.978339586700e+002 1.973733718217e+002 1.977731028406e+002 1.967014649635e+002 1.988098122879e+002 1.977059617401e+002 1.975267669095e+002 1.976688676581e+002 1.975549920259e+002 1.968168644769e+002 1.966897316809e+002 1.967467172534e+002 1.974113667394e+002 1.966891051311e+002 1.967774038238e+002 1.975704194321e+002 1.968008140711e+002 1.967092685301e+002 1.976236398976e+002 1.975124380283e+002 1.976740160942e+002 1.975373605594e+002 1.988373111362e+002 1.971766233112e+002 1.969667333030e+002 1.984055590956e+002 1.984340872295e+002 1.988096685262e+002 1.987664747218e+002 1.988009022929e+002 1.987532986403e+002 1.986578612068e+002 1.985718758896e+002 1.972554644639e+002 1.984920403387e+002 1.984653501399e+002 1.978035593529e+002 1.977699180344e+002 1.979632668562e+002 1.979285027845e+002 1.980802966411e+002 1.981127540495e+002 1.982509166658e+002 1.982211007187e+002 1.974593767493e+002 1.988431509863e+002 1.988431266824e+002 1.988445754504e+002 1.988445761092e+002 1.978250329941e+002 1.988441848112e+002 1.982961262721e+002 1.981620189574e+002 1.980163103845e+002 1.978601977219e+002 1.983672952270e+002 1.984175418240e+002 1.984810273968e+002 1.985805416662e+002 1.974203062535e+002 1.986650986667e+002 1.972381692589e+002 1.987340346326e+002 1.970515594712e+002 1.987868198003e+002 1.987868074600e+002 1.987340167523e+002 1.988043623402e+002 1.986650306124e+002 1.985804603501e+0