<?xml version="1.0"?>
<VTKFile type="UnstructuredGrid" version="0.1" byte_order="LittleEndian">
  <UnstructuredGrid>
    <Piece NumberOfPoints="2604" NumberOfCells="4910">
      <Points>
        <DataArray type="Float64" NumberOfComponents="3" format="ascii">
          0.000000000000e+000 0.000000000000e+000 0.000000000000e+000
          2.000000000000e+002 0.000000000000e+000 0.000000000000e+000
          2.000000000000e+002 2.000000000000e+001 0.000000000000e+000
          0.000000000000e+000 2.000000000000e+001 0.000000000000e+000
          1.492537313427e+000 0.000000000000e+000 0.000000000000e+000
          2.985074626854e+000 0.000000000000e+000 0.000000000000e+000
          4.477611940281e+000 0.000000000000e+000 0.000000000000e+000
          5.970149253708e+000 0.000000000000e+000 0.000000000000e+000
          7.462686567135e+000 0.000000000000e+000 0.000000000000e+000
          8.955223880561e+000 0.000000000000e+000 0.000000000000e+000
          1.044776119399e+001 0.000000000000e+000 0.000000000000e+000
          1.194029850741e+001 0.000000000000e+000 0.000000000000e+000
          1.343283582084e+001 0.000000000000e+000 0.000000000000e+000
          1.492537313427e+001 0.000000000000e+000 0.000000000000e+000
          1.641791044770e+001 0.000000000000e+000 0.000000000000e+000
          1.791044776112e+001 0.000000000000e+000 0.000000000000e+000
          1.940298507455e+001 0.000000000000e+000 0.000000000000e+000
          2.089552238798e+001 0.000000000000e+000 0.000000000000e+000
          2.238805970141e+001 0.000000000000e+000 0.000000000000e+000
          2.388059701484e+001 0.000000000000e+000 0.000000000000e+000
          2.537313432826e+001 0.000000000000e+000 0.000000000000e+000
          2.686567164169e+001 0.000000000000e+000 0.000000000000e+000
          2.835820895511e+001 0.000000000000e+000 0.000000000000e+000
          2.985074626854e+001 0.000000000000e+000 0.000000000000e+000
          3.134328358196e+001 0.000000000000e+000 0.000000000000e+000
          3.283582089539e+001 0.000000000000e+000 0.000000000000e+000
          3.432835820881e+001 0.000000000000e+000 0.000000000000e+000
          3.582089552224e+001 0.000000000000e+000 0.000000000000e+000
          3.731343283566e+001 0.000000000000e+000 0.000000000000e+000
          3.880597014909e+001 0.000000000000e+000 0.000000000000e+000
          4.029850746251e+001 0.000000000000e+000 0.000000000000e+000
          4.179104477594e+001 0.000000000000e+000 0.000000000000e+000
          4.328358208936e+001 0.000000000000e+000 0.000000000000e+000
          4.477611940279e+001 0.000000000000e+000 0.000000000000e+000
          4.626865671621e+001 0.000000000000e+000 0.000000000000e+000
          4.776119402964e+001 0.000000000000e+000 0.000000000000e+000
          4.925373134306e+001 0.000000000000e+000 0.000000000000e+000
          5.074626865649e+001 0.000000000000e+000 0.000000000000e+000
          5.223880596991e+001 0.000000000000e+000 0.000000000000e+000
          5.373134328334e+001 0.000000000000e+000 0.000000000000e+000
          5.522388059676e+001 0.000000000000e+000 0.000000000000e+000
          5.671641791019e+001 0.000000000000e+000 0.000000000000e+000
          5.820895522361e+001 0.000000000000e+000 0.000000000000e+000
          5.970149253704e+001 0.000000000000e+000 0.000000000000e+000
          6.119402985046e+001 0.000000000000e+000 0.000000000000e+000
          6.268656716389e+001 0.000000000000e+000 0.000000000000e+000
          6.417910447732e+001 0.000000000000e+000 0.000000000000e+000
          6.567164179075e+001 0.000000000000e+000 0.000000000000e+000
          6.716417910418e+001 0.000000000000e+000 0.000000000000e+000
          6.865671641761e+001 0.000000000000e+000 0.000000000000e+000
          7.014925373104e+001 0.000000000000e+000 0.000000000000e+000
          7.164179104447e+001 0.000000000000e+000 0.000000000000e+000
          7.313432835790e+001 0.000000000000e+000 0.000000000000e+000
          7.462686567133e+001 0.000000000000e+000 0.000000000000e+000
          7.611940298476e+001 0.000000000000e+000 0.000000000000e+000
          7.761194029819e+001 0.000000000000e+000 0.000000000000e+000
          7.910447761162e+001 0.000000000000e+000 0.000000000000e+000
          8.059701492505e+001 0.000000000000e+000 0.000000000000e+000
          8.208955223848e+001 0.000000000000e+000 0.000000000000e+000
          8.358208955191e+001 0.000000000000e+000 0.000000000000e+000
          8.507462686534e+001 0.000000000000e+000 0.000000000000e+000
          8.656716417877e+001 0.000000000000e+000 0.000000000000e+000
          8.805970149220e+001 0.000000000000e+000 0.000000000000e+000
          8.955223880563e+001 0.000000000000e+000 0.000000000000e+000
          9.104477611907e+001 0.000000000000e+000 0.000000000000e+000
          9.253731343250e+001 0.000000000000e+000 0.000000000000e+000
          9.402985074593e+001 0.000000000000e+000 0.000000000000e+000
          9.552238805936e+001 0.000000000000e+000 0.000000000000e+000
          9.701492537279e+001 0.000000000000e+000 0.000000000000e+000
          9.850746268622e+001 0.000000000000e+000 0.000000000000e+000
          9.999999999965e+001 0.000000000000e+000 0.000000000000e+000
          1.014925373131e+002 0.000000000000e+000 0.000000000000e+000
          1.029850746265e+002 0.000000000000e+000 0.000000000000e+000
          1.044776119399e+002 0.000000000000e+000 0.000000000000e+000
          1.059701492534e+002 0.000000000000e+000 0.000000000000e+000
          1.074626865668e+002 0.000000000000e+000 0.000000000000e+000
          1.089552238802e+002 0.000000000000e+000 0.000000000000e+000
          1.104477611937e+002 0.000000000000e+000 0.000000000000e+000
          1.119402985071e+002 0.000000000000e+000 0.000000000000e+000
          1.134328358205e+002 0.000000000000e+000 0.000000000000e+000
          1.149253731340e+002 0.000000000000e+000 0.000000000000e+000
          1.164179104474e+002 0.000000000000e+000 0.000000000000e+000
          1.179104477608e+002 0.000000000000e+000 0.000000000000e+000
          1.194029850742e+002 0.000000000000e+000 0.000000000000e+000
          1.208955223877e+002 0.000000000000e+000 0.000000000000e+000
          1.223880597011e+002 0.000000000000e+000 0.000000000000e+000
          1.238805970145e+002 0.000000000000e+000 0.000000000000e+000
          1.253731343280e+002 0.000000000000e+000 0.000000000000e+000
          1.268656716414e+002 0.000000000000e+000 0.000000000000e+000
          1.283582089548e+002 0.000000000000e+000 0.000000000000e+000
          1.298507462683e+002 0.000000000000e+000 0.000000000000e+000
          1.313432835817e+002 0.000000000000e+000 0.000000000000e+000
          1.328358208952e+002 0.000000000000e+000 0.000000000000e+000
          1.343283582086e+002 0.000000000000e+000 0.000000000000e+000
          1.358208955220e+002 0.000000000000e+000 0.000000000000e+000
          1.373134328355e+002 0.000000000000e+000 0.000000000000e+000
          1.388059701489e+002 0.000000000000e+000 0.000000000000e+000
          1.402985074624e+002 0.000000000000e+000 0.000000000000e+000
          1.417910447758e+002 0.000000000000e+000 0.000000000000e+000
          1.432835820892e+002 0.000000000000e+000 0.000000000000e+000
          1.447761194027e+002 0.000000000000e+000 0.000000000000e+000
          1.462686567161e+002 0.000000000000e+000 0.000000000000e+000
          1.477611940296e+002 0.000000000000e+000 0.000000000000e+000
          1.492537313430e+002 0.000000000000e+000 0.000000000000e+000
          1.507462686564e+002 0.000000000000e+000 0.000000000000e+000
          1.522388059699e+002 0.000000000000e+000 0.000000000000e+000
          1.537313432833e+002 0.000000000000e+000 0.000000000000e+000
          1.552238805968e+002 0.000000000000e+000 0.000000000000e+000
          1.567164179102e+002 0.000000000000e+000 0.000000000000e+000
          1.582089552237e+002 0.000000000000e+000 0.000000000000e+000
          1.597014925371e+002 0.000000000000e+000 0.000000000000e+000
          1.611940298505e+002 0.000000000000e+000 0.000000000000e+000
          1.626865671640e+002 0.000000000000e+000 0.000000000000e+000
          1.641791044774e+002 0.000000000000e+000 0.000000000000e+000
          1.656716417909e+002 0.000000000000e+000 0.000000000000e+000
          1.671641791043e+002 0.000000000000e+000 0.000000000000e+000
          1.686567164177e+002 0.000000000000e+000 0.000000000000e+000
          1.701492537312e+002 0.000000000000e+000 0.000000000000e+000
          1.716417910446e+002 0.000000000000e+000 0.000000000000e+000
          1.731343283581e+002 0.000000000000e+000 0.000000000000e+000
          1.746268656715e+002 0.000000000000e+000 0.000000000000e+000
          1.761194029849e+002 0.000000000000e+000 0.000000000000e+000
          1.776119402984e+002 0.000000000000e+000 0.000000000000e+000
          1.791044776118e+002 0.000000000000e+000 0.000000000000e+000
          1.805970149253e+002 0.000000000000e+000 0.000000000000e+000
          1.820895522387e+002 0.000000000000e+000 0.000000000000e+000
          1.835820895521e+002 0.000000000000e+000 0.000000000000e+000
          1.850746268656e+002 0.000000000000e+000 0.000000000000e+000
          1.865671641790e+002 0.000000000000e+000 0.000000000000e+000
          1.880597014925e+002 0.000000000000e+000 0.000000000000e+000
          1.895522388059e+002 0.000000000000e+000 0.000000000000e+000
          1.910447761194e+002 0.000000000000e+000 0.000000000000e+000
          1.925373134328e+002 0.000000000000e+000 0.000000000000e+000
          1.940298507462e+002 0.000000000000e+000 0.000000000000e+000
          1.955223880597e+002 0.000000000000e+000 0.000000000000e+000
          1.970149253731e+002 0.000000000000e+000 0.000000000000e+000
          1.985074626866e+002 0.000000000000e+000 0.000000000000e+000
          2.000000000000e+002 1.428571428570e+000 0.000000000000e+000
          2.000000000000e+002 2.857142857140e+000 0.000000000000e+000
[...]
      <PointData Scalars="MEAN_PRESSURE">
        <DataArray type="Float64" Name="MEAN_PRESSURE" format="ascii">
          2.000000000000e+002 1.996415602792e+002 1.996415587600e+002 2.000000000000e+002 1.993583797595e+002 1.981643956269e+002 1.974212101597e+002 1.969615202267e+002 1.967060896321e+002 1.965875624047e+002 1.965472792789e+002 1.965536935832e+002 1.965832064498e+002 1.966230330026e+002 1.966663179083e+002 1.967100867346e+002 1.967532454755e+002 1.967955795794e+002 1.968372467948e+002 1.968784564705e+002 1.969193942146e+002 1.969601571528e+002 1.970008316922e+002 1.970414456592e+002 1.970820044471e+002 1.971225019855e+002 1.971629322924e+002 1.972032817407e+002 1.972435339460e+002 1.972836777704e+002 1.973237001155e+002 1.973635922511e+002 1.974033379536e+002 1.974429288964e+002 1.974823539394e+002 1.975216006908e+002 1.975606631651e+002 1.975995261699e+002 1.976381840361e+002 1.976766297924e+002 1.977148476054e+002 1.977528251492e+002 1.977905645955e+002 1.978280504516e+002 1.978652783807e+002 1.979022379265e+002 1.979389266513e+002 1.979753208446e+002 1.980114354721e+002 1.980472449284e+002 1.980827461034e+002 1.981179357501e+002 1.981528133778e+002 1.981873472503e+002 1.982215567552e+002 1.982554280508e+002 1.982889589841e+002 1.983221310482e+002 1.983549441876e+002 1.983874125503e+002 1.984194946417e+002 1.984512064462e+002 1.984825413011e+002 1.985135018191e+002 1.985440728995e+002 1.985742535768e+002 1.986040412149e+002 1.986334279003e+002 1.986624173812e+002 1.986909969791e+002 1.987191770475e+002 1.987469378817e+002 1.987742903230e+002 1.988012245223e+002 1.988277380863e+002 1.988538351684e+002 1.988795042691e+002 1.989047565189e+002 1.989295786151e+002 1.989539746625e+002 1.989779352220e+002 1.990014726939e+002 1.990245741853e+002 1.990472474442e+002 1.990694847778e+002 1.990912877465e+002 1.991126588154e+002 1.991335949293e+002 1.991540960541e+002 1.991741630419e+002 1.991937958176e+002 1.992129953169e+002 1.992317619671e+002 1.992500929141e+002 1.992679866328e+002 1.992854533533e+002 1.993024832816e+002 1.993190826082e+002 1.993352526878e+002 1.993509957877e+002 1.993663084127e+002 1.993811894301e+002 1.993956492000e+002 1.994096783659e+002 1.994232834568e+002 1.994364662451e+002 1.994492293408e+002 1.994615696060e+002 1.994734861849e+002 1.994849894497e+002 1.994960703212e+002 1.995067351109e+002 1.995169866150e+002 1.995268283790e+002 1.995362546784e+002 1.995452658006e+002 1.995538725177e+002 1.995620655077e+002 1.995698508169e+002 1.995772306253e+002 1.995842086287e+002 1.995907817794e+002 1.995969478173e+002 1.996027110929e+002 1.996080719701e+002 1.996130283129e+002 1.996175892473e+002 1.996217552223e+002 1.996255162287e+002 1.996288876471e+002 1.996318670132e+002 1.996344292264e+002 1.996366015174e+002 1.996383797009e+002 1.996397844691e+002 1.996407333338e+002 1.996413439789e+002 1.996415391487e+002 1.996415194722e+002 1.996415622038e+002 1.996415536304e+002 1.996415494301e+002 1.996415417187e+002 1.996415366590e+002 1.996415401681e+002 1.996415405733e+002 1.996415309238e+002 1.996415575945e+002 1.996415170556e+002 1.996415374709e+002 1.996413426111e+002 1.996407322486e+002 1.996397835301e+002 1.996383787738e+002 1.996366008033e+002 1.996344297698e+002 1.996318687766e+002 1.996288896632e+002 1.996255181223e+002 1.996217569927e+002 1.996175896880e+002 1.996130290744e+002 1.996080717482e+002 1.996027098151e+002 1.995969468691e+002 1.995907798549e+002 1.995842062146e+002 1.995772358821e+002 1.995698551489e+002 1.995620666149e+002 1.995538722661e+002 1.995452671536e+002 1.995362512190e+002 1.995268278457e+002 1.995169896842e+002 1.995067392505e+002 1.994960703092e+002 1.994849881802e+002 1.994734837892e+002 1.994615682195e+002 1.994492274258e+002 1.994364670425e+002 1.994232849512e+002 1.994096754800e+002 1.993956473302e+002 1.993811875819e+002 1.993663079202e+002 1.993509946061e+002 1.993352538141e+002 1.993190838768e+002 1.993024799381e+002 1.992854514227e+002 1.992679852970e+002 1.992500930877e+002 1.992317616212e+002 1.992129926443e+002 1.991937969575e+002 1.991741638374e+002 1.991540964271e+002 1.991335949156e+002 1.991126601153e+002 1.990912923023e+002 1.990694885086e+002 1.990472471870e+002 1.990245785976e+002 1.990014729227e+002 1.989779362028e+002 1.989539706059e+002 1.989295802642e+002 1.989047561784e+002 1.988795089960e+002 1.988538371187e+002 1.988277396206e+002 1.988012218794e+002 1.987742875493e+002 1.987469395868e+002 1.987191755188e+002 1.986910002723e+002 1.986624157402e+002 1.986334278378e+002 1.986040380847e+002 1.985742517381e+002 1.985440734228e+002 1.985135024902e+002 1.984825452304e+002 1.984512050331e+002 1.984194890387e+002 1.983874002420e+002 1.983549449400e+002 1.983221304130e+002 1.982889570706e+002 1.982554320086e+002 1.982215597410e+002 1.981873490629e+002 1.981528040808e+002 1.981179336689e+002 1.980827438823e+002 1.980472346621e+002 1.980114282150e+002 1.979753214434e+002 1.979389196789e+002 1.979022376757e+002 1.978652721232e+002 1.978280393103e+002 1.977905497227e+002 1.977528053082e+002 1.977148169318e+002 1.976765945112e+002 1.976381443570e+002 1.975994742307e+002 1.975605976243e+002 1.975215182490e+002 1.974822476834e+002 1.974427951038e+002 1.974031699218e+002 1.973633790863e+002 1.973234310932e+002 1.972833374996e+002 1.972431025435e+002 1.972027359326e+002 1.971622445739e+002 1.971216343457e+002 1.970809058634e+002 1.970400568820e+002 1.969990758990e+002 1.969579339589e+002 1.969165740681e+002 1.968748930467e+002 1.968327451814e+002 1.967898799654e+002 1.967460712327e+002 1.967010672882e+002 1.966550105380e+002 1.966089003550e+002 1.965659422253e+002 1.965330489892e+002 1.965236404958e+002 1.965581388425e+002 1.966782595526e+002 1.969363595166e+002 1.973936836066e+002 1.981457565586e+002 1.993365671384e+002 2.000000000000e+002 2.000000000000e+002 2.000000000000e+002 2.000000000000e+002 2.000000000000e+002 2.000000000000e+002 2.000000000000e+002 2.000000000000e+002 2.000000000000e+002 2.000000000000e+002 2.000000000000e+002 2.000000000000e+002 2.000000000000e+002 1.996326480830e+002 1.965363472783e+002 1.996056106039e+002 1.995581746575e+002 1.994898810584e+002 1.994018311464e+002 1.992929470310e+002 1.969794907990e+002 1.991641744926e+002 1.972659329718e+002 1.975435603458e+002 1.978139946517e+002 1.982015754182e+002 1.984353854879e+002 1.986479621402e+002 1.988408295002e+002 1.990130662840e+002 1.967316129527e+002 1.980114336453e+002 1.990912820721e+002 1.990902918002e+002 1.989295794038e+002 1.987469385018e+002 1.985440742525e+002 1.983221328427e+002 1.995852341261e+002 1.995282845301e+002 1.994506901279e+002 1.983221259209e+002 1.985386158632e+002 1.987491611268e+002 1.989251535023e+002 1.993528078829e+002 1.992317534940e+002 1.971202675029e+002 1.973986240147e+002 1.976809349328e+002 1.992326219907e+002 1.993511436958e+002 1.994493477864e+002 1.995268176769e+002 1.995841984470e+002 1.976762074996e+002 1.974028023428e+002 1.971218280487e+002 1.996213391775e+002 1.996210891840e+002 1.979336900528e+002 1.980921896715e+002 1.966125214317e+002 1.968393223741e+002 1.996384382399e+002 1.969490367988e+002 1.996384874648e+002 1.969413532478e+002 1.965904731320e+002 1.968723817143e+002 1.978938409823e+002 1.981229315281e+002 1.996054466448e+002 1.990130700013e+002 1.995580130807e+002 1.988408398529e+002 1.986479728425e+002 1.984353942067e+002 1.982117547307e+002 1.991639809077e+002 1.994907691852e+002 1.994039570045e+002 1.992955318974e+002 1.972628195807e+002 1.975376616534e+002 1.991643687431e+002 1.992940128295e+002 1.994027089760e+002 1.994905745151e+002 1.984353343508e+002 1.986479164701e+002 1.988407857180e+002 1.995580130943e+002 1.990134853816e+002 1.996054399611e+002 1.978093308349e+002 1.975410891891e+002 1.972632892461e+002 1.969787996411e+002 1.996315263256e+002 1.996317117317e+002 1.965208601231e+002 1.970014099793e+002 1.982284916962e+002 1.977805436135e+002 1.996399190690e+002 1.974741005557e+002 1.967359521338e+002 1.965504572610e+002 1.967290138104e+002 1.979907665875e+002 1.979147733004e+002 1.981072156974e+002 1.965936134479e+002 1.968456022846e+002 1.980122446356e+002 1.996243725685e+002 1.994603760335e+002 1.995173395654e+002 1.993648261504e+002 1.995774777544e+002 1.992482977895e+002 1.989498832367e+002 1.985691903866e+002 1.983494397823e+002 1.987716178111e+002 1.971610873646e+002 1.976419153092e+002 1.973673712614e+002 1.990716058257e+002 1.980114301990e+002 1.996405494469e+002 1.979984598342e+002 1.996405494269e+002 1.979651366974e+002 1.989626306242e+002 1.987840137514e+002 1.985850032555e+002 1.983666544705e+002 1.992061223359e+002 1.990606368029e+002 1.991202272506e+002 1.993294720340e+002 1.977285068433e+002 1.994317599171e+002 1.974570145614e+002 1.995133316662e+002 1.971768691215e+002 1.995746089870e+002 1.995743284733e+002 1.995934838233e+002 1.995129370045e+002 1.995397149269e+002 1.994305375441e+002 1.994654300653e+002 1.993279699837e+002 1.993711251613e+002 1.971828916267e+002 1.992557646554e+002 1.992060681416e+002 1.974608268728e+002 1.973507502671e+002 1.983668288443e+002 1.985862208619e+002 1.987861781440e+002 1.985034987133e+002 1.987099588881e+002 1.989615573079e+002 1.988966065748e+002 1.976354044400e+002 1.991202824902e+002 1.990648295833e+002 1.995930426889e+002 1.970663059138e+002 1.995381389837e+002 1.973549849831e+002 1.994641076884e+002 1.976300116168e+002 1.993694713623e+002 1.982715119443e+002 1.984992953404e+002 1.987062530639e+002 1.988927313147e+002 1.992538914427e+002 1.967119613800e+002 1.996157206224e+002 1.996155177345e+002 1.981296027268e+002 1.978859616353e+002 1.968942558738e+002 1.991184145709e+002 1.987107835707e+002 1.988977698210e+002 1.985049288799e+002 1.982721919856e+002 1.970693728027e+002 1.974536891246e+002 1.995926535825e+002 1.977262054054e+002 1.995387532939e+002 1.994328891944e+002 1.992077752616e+002 1.993308587545e+002 1.970810212487e+002 1.996256537425e+002 1.996256530091e+002 1.980675677931e+002 1.965664517492e+002 1.996161506122e+002 1.991354639578e+002 1.991923369247e+002 1.993178283277e+002 1.977534945210e+002 1.994222581363e+002 1.974852903478e+002 1.984802172400e+002 1.986888759183e+002 1.988776050733e+002 1.995970612463e+002 1.970397556932e+002 1.995459388277e+002 1.968174508077e+002 1.982582842386e+002 1.996365102240e+002 1.996362672580e+002 1.996124435625e+002 1.982932122320e+002 1.977101087621e+002 1.981568862141e+002 1.978597738723e+002 1.966690754781e+002 1.969238558985e+002 1.965376124413e+002 1.966420340562e+002 1.969245740087e+002 1.989768101446e+002 1.988003784095e+002 1.986031005512e+002 1.983863785720e+002 1.995072800458e+002 1.972008282231e+002 1.995702614075e+002 1.990463264777e+002 1.992675103140e+002 1.995063190695e+002 1.993818196873e+002 1.995695559163e+002 1.994739860490e+002 1.989796418613e+002 1.988003050774e+002 1.986052704990e+002 1.983887445366e+002 1.972048113719e+002 1.976006167249e+002 1.973219507332e+002 1.973218364852e+002 1.994739776185e+002 1.975978650860e+002 1.993817986048e+002 1.992687201909e+002 1.990463058814e+002 1.996406501255e+002 1.996407085657e+002 1.980969263697e+002 1.979783703203e+002 1.996369546461e+002 1.967167384776e+002 1.996288599910e+002 1.996294105163e+002 1.965752454025e+002 1.996349992450e+002 1.965353646036e+002 1.967547289564e+002 1.978502820348e+002 1.981674706654e+002 1.969474860968e+002 1.965601011771e+002 1.978249851470e+002 1.967986959231e+002 1.967914329624e+002 1.981915861698e+002 1.966806121850e+002 1.979180980918e+002 1.980636980597e+002 1.966501819295e+002 1.974731765751e+002 1.991993637931e+002 1.993228907657e+002 1.994263935136e+002 1.995442732675e+002 1.995963281629e+002 1.991276460797e+002 1.982625379577e+002 1.984889125567e+002 1.986967995620e+002 1.988847103802e+002 1.979570415650e+002 1.967987497895e+002 1.980710813811e+002 1.979471273375e+002 1.996136441547e+002 1.996342593523e+002 1.970511203626e+002 1.977356495183e+002 1.966142268703e+002 1.968462389601e+002 1.996380055253e+002 1.966686032608e+002 1.990003641460e+002 1.988264890829e+002 1.986320443413e+002 1.984179790027e+002 1.991736731168e+002 1.991545780174e+002 1.990260000521e+002 1.993032586733e+002 1.994103134581e+002 1.977887792103e+002 1.994965680323e+002 1.975196754464e+002 1.995624280732e+002 1.972412229306e+002 1.996025723382e+002 1.995621492781e+002 1.994967438417e+002 1.994107386915e+002 1.993037747574e+002 1.972409882097e+002 1.975185357769e+002 1.984191448075e+002 1.986318143048e+002 1.988262822568e+002 1.996024403937e+002 1.970010668341e+002 1.982247958294e+002 1.996058472653e+002 1.996303670904e+002 1.996303697308e+002 1.970204821297e+002 1.969139253444e+002 1.965226747312e+002 1.980505110489e+002 1.995878994168e+002 1.995321037632e+002 1.994421933177e+002 1.993423079011e+002 1.992197371369e+002 1.970994370688e+002 1.974252361146e+002 1.976978419809e+002 1.989166484906e+002 1.985281320889e+002 1.983051033847e+002 1.987291314634e+002 1.991050833211e+002 1.996190622155e+002 1.996389156008e+002 1.996389167942e+002 1.995566104869e+002 1.994049503608e+002 1.992967383750e+002 1.975348773809e+002 1.984407793170e+002 1.986528940539e+002 1.988452677280e+002 1.970799486841e+002 1.979730342329e+002 1.991679185046e+002 1.991605361291e+002 1.982109712983e+002 1.996411039397e+002 1.986770585095e+002 1.977624703566e+002 1.982477235997e+002 1.992310630888e+002 1.993504093076e+002 1.994487536941e+002 1.995842010598e+002 1.995268425281e+002 1.976780155164e+002 1.974046478743e+002 1.971216605070e+002 1.987469365046e+002 1.989295780621e+002 1.983221263977e+002 1.985440705370e+002 1.995841968267e+002 1.995268214516e+002 1.985440620156e+002 1.987474070472e+002 1.994492171921e+002 1.989297956962e+002 1.993509844526e+002 1.992319252665e+002 1.974033286977e+002 1.990920851703e+002 1.990912808728e+002 1.967727849421e+002 1.978604578718e+002 1.967578374018e+002 1.982752939754e+002 1.980204608183e+002 1.996266569083e+002 1.996263159431e+002 1.981170860865e+002 1.981369091075e+002 1.980369844972e+002 1.991826910846e+002 1.989913630396e+002 1.990344160419e+002 1.991452978539e+002 1.988649662237e+002 1.986748026373e+002 1.984647780387e+002 1.992779633882e+002 1.973009607151e+002 1.975774627838e+002 1.995507625651e+002 1.994800703055e+002 1.993894556323e+002 1.995502062141e+002 1.973006711892e+002 1.994800738740e+002 1.975774063388e+002 1.984647814062e+002 1.986748059304e+002 1.988613916912e+002 1.993894582004e+002 1.992779647935e+002 1.972085246077e+002 1.965470769943e+002 1.996391531235e+002 1.971622981107e+002 1.990139150385e+002 1.990122244338e+002 1.972623747909e+002 1.972618862151e+002 1.994909765064e+002 1.994908837642e+002 1.996358315518e+002 1.966796016970e+002 1.965828153818e+002 1.970035459641e+002 1.967253661957e+002 1.996411410556e+002 1.987832047786e+002 1.996411646036e+002 1.986967978938e+002 1.966154727145e+002 1.996100767987e+002 1.996101718106e+002 1.992935355616e+002 1.994023155563e+002 1.975422043814e+002 1.988396919990e+002 1.984339989001e+002 1.986466946429e+002 1.995580952880e+002 1.968653510615e+002 1.968731711278e+002 1.965433121574e+002 1.981742024651e+002 1.978426191697e+002 1.965489842379e+002 1.969423836941e+002 1.971315999593e+002 1.979101722839e+002 1.969037471849e+002 1.996208205562e+002 1.996208211553e+002 1.978828479038e+002 1.981482666111e+002 1.996155196334e+002 1.977810958482e+002 1.981545259068e+002 1.981139006155e+002 1.995390997810e+002 1.970667657361e+002 1.995929830171e+002 1.984805297652e+002 1.986886460254e+002 1.988778600127e+002 1.991367047279e+002 1.974584560480e+002 1.994312844626e+002 1.977295269723e+002 1.993288883866e+002 1.991908643992e+002 1.996052968549e+002 1.967926248102e+002 1.980680990438e+002 1.979825652273e+002 1.978082437166e+002 1.966174927903e+002 1.996412014282e+002 1.988701680582e+002 1.996412028528e+002 1.989670641539e+002 1.966154447616e+002 1.969808477339e+002 1.980058955140e+002 1.979113192544e+002 1.996360308835e+002 1.976629332546e+002 1.983316723964e+002 1.968694733449e+002 1.981789051341e+002 1.966944982863e+002 1.992551968044e+002 1.993705580350e+002 1.994649793301e+002 1.976271881450e+002 1.973520893028e+002 1.994748506790e+002 1.995690497164e+002 1.993829062316e+002 1.995056538208e+002 1.992700649238e+002 1.973189454488e+002 1.975949483532e+002 1.972075772385e+002 1.983907998576e+002 1.988043597739e+002 1.986070930698e+002 1.989807289601e+002 1.995741447992e+002 1.995126893534e+002 1.971794831336e+002 1.990631993737e+002 1.983641784092e+002 1.985827283650e+002 1.987819551051e+002 1.989607954594e+002 1.990449252634e+002 1.990912849711e+002 1.989295620584e+002 1.985440589636e+002 1.987469348136e+002 1.983221199089e+002 1.995842042873e+002 1.995268230247e+002 1.994493997274e+002 1.992317573246e+002 1.993512093292e+002 1.971223881281e+002 1.974026941679e+002 1.976765669791e+002 1.978390687175e+002 1.969296748928e+002 1.996356769214e+002 1.966151259874e+002 1.990422592527e+002 1.989831789818e+002 1.988067007130e+002 1.986101086056e+002 1.983940246084e+002 1.995040131388e+002 1.995679119214e+002 1.972133770081e+002 1.994760486649e+002 1.993841183040e+002 1.992713634095e+002 1.973146976477e+002 1.975920413558e+002 1.979992561796e+002 1.996213422256e+002 1.979702415424e+002 1.996242571503e+002 1.990884072210e+002 1.990931463564e+002 1.989348681467e+002 1.987527778504e+002 1.985506098854e+002 1.983292362010e+002 1.995832996387e+002 1.995255386482e+002 1.994469000109e+002 1.993481190739e+002 1.992342104912e+002 1.974106257087e+002 1.992301569634e+002 1.985480994493e+002 1.987432700157e+002 1.989328387994e+002 1.993499743562e+002 1.994484010937e+002 1.976790779825e+002 1.995269403193e+002 1.974057603456e+002 1.995842844919e+002 1.971211951980e+002 1.967328034009e+002 1.995186944164e+002 1.971555358662e+002 1.995784470238e+002 1.985676419273e+002 1.989486353930e+002 1.987697539613e+002 1.983477545856e+002 1.973728941313e+002 1.994586574803e+002 1.976472866295e+002 1.993626918782e+002 1.992454028520e+002 1.990751178707e+002 1.965492722276e+002 1.996411723415e+002 1.988040787410e+002 1.996283778646e+002 1.996338639207e+002 1.996338612927e+002 1.979621110266e+002 1.980601424001e+002 1.968567508283e+002 1.971280702990e+002 1.996126951333e+002 1.965441583733e+002 1.996207976593e+002 1.996206838807e+002 1.969680156967e+002 1.991901568949e+002 1.993162663941e+002 1.977579975392e+002 1.994209807050e+002 1.974890476923e+002 1.988796826642e+002 1.986889021508e+002 1.984827633661e+002 1.991363670920e+002 1.995979139840e+002 1.970300352237e+002 1.995467728864e+002 1.978068643916e+002 1.982079992710e+002 1.979378314947e+002 1.966070922705e+002 1.965451623050e+002 1.996400989674e+002 1.976280253743e+002 1.996400985374e+002 1.975655956245e+002 1.983339013863e+002 1.976640097241e+002 1.982473156569e+002 1.966440561730e+002 1.996001896230e+002 1.971542161016e+002 1.978904938429e+002 1.980974944211e+002 1.979318442322e+002 1.968443142032e+002 1.966060831882e+002 1.967426480777e+002 1.977203685438e+002 1.966046044149e+002 1.967884672176e+002 1.979543936852e+002 1.965229923546e+002 1.965677771145e+002 1.980319352335e+002 1.978694611244e+002 1.981049386621e+002 1.979060297658e+002 1.996316994895e+002 1.967067210032e+002 1.970562027576e+002 1.991077276981e+002 1.991441528668e+002 1.996000243401e+002 1.995499852365e+002 1.995899224659e+002 1.995345911382e+002 1.994213125397e+002 1.993166693348e+002 1.974881816909e+002 1.992174146598e+002 1.991837975630e+002 1.982907301667e+002 1.982427624556e+002 1.985155104388e+002 1.984670188390e+002 1.986768467509e+002 1.987210386613e+002 1.989062972443e+002 1.988667265257e+002 1.969128864149e+002 1.996383560864e+002 1.996383283756e+002 1.996399778869e+002 1.996399786287e+002 1.972622642724e+002 1.996395331957e+002 1.989658604812e+002 1.987876419564e+002 1.985890122701e+002 1.983710200213e+002 1.990585021382e+002 1.991230554238e+002 1.992035686545e+002 1.993273203670e+002 1.977336094208e+002 1.994300084471e+002 1.974623039591e+002 1.995119746795e+002 1.971822643127e+002 1.995736364127e+002 1.995736222376e+002 1.995119538897e+002 1.995939127539e+002 1.994299266550e+002 1.993272203135e+0