<?xml version="1.0"?>
<VTKFile type="UnstructuredGrid" version="0.1" byte_order="LittleEndian">
  <UnstructuredGrid>
    <Piece NumberOfPoints="2604" NumberOfCells="4910">
      <Points>
        <DataArray type="Float64" NumberOfComponents="3" format="ascii">
          0.000000000000e+000 0.000000000000e+000 0.000000000000e+000
          2.000000000000e+002 0.000000000000e+000 0.000000000000e+000
          2.000000000000e+002 2.000000000000e+001 0.000000000000e+000
          0.000000000000e+000 2.000000000000e+001 0.000000000000e+000
          1.492537313427e+000 0.000000000000e+000 0.000000000000e+000
          2.985074626854e+000 0.000000000000e+000 0.000000000000e+000
          4.477611940281e+000 0.000000000000e+000 0.000000000000e+000
          5.970149253708e+000 0.000000000000e+000 0.000000000000e+000
          7.462686567135e+000 0.000000000000e+000 0.000000000000e+000
          8.955223880561e+000 0.000000000000e+000 0.000000000000e+000
          1.044776119399e+001 0.000000000000e+000 0.000000000000e+000
          1.194029850741e+001 0.000000000000e+000 0.000000000000e+000
          1.343283582084e+001 0.000000000000e+000 0.000000000000e+000
          1.492537313427e+001 0.000000000000e+000 0.000000000000e+000
          1.641791044770e+001 0.000000000000e+000 0.000000000000e+000
          1.791044776112e+001 0.000000000000e+000 0.000000000000e+000
          1.940298507455e+001 0.000000000000e+000 0.000000000000e+000
          2.089552238798e+001 0.000000000000e+000 0.000000000000e+000
          2.238805970141e+001 0.000000000000e+000 0.000000000000e+000
          2.388059701484e+001 0.000000000000e+000 0.000000000000e+000
          2.537313432826e+001 0.000000000000e+000 0.000000000000e+000
          2.686567164169e+001 0.000000000000e+000 0.000000000000e+000
          2.835820895511e+001 0.000000000000e+000 0.000000000000e+000
          2.985074626854e+001 0.000000000000e+000 0.000000000000e+000
          3.134328358196e+001 0.000000000000e+000 0.000000000000e+000
          3.283582089539e+001 0.000000000000e+000 0.000000000000e+000
          3.432835820881e+001 0.000000000000e+000 0.000000000000e+000
          3.582089552224e+001 0.000000000000e+000 0.000000000000e+000
          3.731343283566e+001 0.000000000000e+000 0.000000000000e+000
          3.880597014909e+001 0.000000000000e+000 0.000000000000e+000
          4.029850746251e+001 0.000000000000e+000 0.000000000000e+000
          4.179104477594e+001 0.000000000000e+000 0.000000000000e+000
          4.328358208936e+001 0.000000000000e+000 0.000000000000e+000
          4.477611940279e+001 0.000000000000e+000 0.000000000000e+000
          4.626865671621e+001 0.000000000000e+000 0.000000000000e+000
          4.776119402964e+001 0.000000000000e+000 0.000000000000e+000
          4.925373134306e+001 0.000000000000e+000 0.000000000000e+000
          5.074626865649e+001 0.000000000000e+000 0.000000000000e+000
          5.223880596991e+001 0.000000000000e+000 0.000000000000e+000
          5.373134328334e+001 0.000000000000e+000 0.000000000000e+000
          5.522388059676e+001 0.000000000000e+000 0.000000000000e+000
          5.671641791019e+001 0.000000000000e+000 0.000000000000e+000
          5.820895522361e+001 0.000000000000e+000 0.000000000000e+000
          5.970149253704e+001 0.000000000000e+000 0.000000000000e+000
          6.119402985046e+001 0.000000000000e+000 0.000000000000e+000
          6.268656716389e+001 0.000000000000e+000 0.000000000000e+000
          6.417910447732e+001 0.000000000000e+000 0.000000000000e+000
          6.567164179075e+001 0.000000000000e+000 0.000000000000e+000
          6.716417910418e+001 0.000000000000e+000 0.000000000000e+000
          6.865671641761e+001 0.000000000000e+000 0.000000000000e+000
          7.014925373104e+001 0.000000000000e+000 0.000000000000e+000
          7.164179104447e+001 0.000000000000e+000 0.000000000000e+000
          7.313432835790e+001 0.000000000000e+000 0.000000000000e+000
          7.462686567133e+001 0.000000000000e+000 0.000000000000e+000
          7.611940298476e+001 0.000000000000e+000 0.000000000000e+000
          7.761194029819e+001 0.000000000000e+000 0.000000000000e+000
          7.910447761162e+001 0.000000000000e+000 0.000000000000e+000
          8.059701492505e+001 0.000000000000e+000 0.000000000000e+000
          8.208955223848e+001 0.000000000000e+000 0.000000000000e+000
          8.358208955191e+001 0.000000000000e+000 0.000000000000e+000
          8.507462686534e+001 0.000000000000e+000 0.000000000000e+000
          8.656716417877e+001 0.000000000000e+000 0.000000000000e+000
          8.805970149220e+001 0.000000000000e+000 0.000000000000e+000
          8.955223880563e+001 0.000000000000e+000 0.000000000000e+000
          9.104477611907e+001 0.000000000000e+000 0.000000000000e+000
          9.253731343250e+001 0.000000000000e+000 0.000000000000e+000
          9.402985074593e+001 0.000000000000e+000 0.000000000000e+000
          9.552238805936e+001 0.000000000000e+000 0.000000000000e+000
          9.701492537279e+001 0.000000000000e+000 0.000000000000e+000
          9.850746268622e+001 0.000000000000e+000 0.000000000000e+000
          9.999999999965e+001 0.000000000000e+000 0.000000000000e+000
          1.014925373131e+002 0.000000000000e+000 0.000000000000e+000
          1.029850746265e+002 0.000000000000e+000 0.000000000000e+000
          1.044776119399e+002 0.000000000000e+000 0.000000000000e+000
          1.059701492534e+002 0.000000000000e+000 0.000000000000e+000
          1.074626865668e+002 0.000000000000e+000 0.000000000000e+000
          1.089552238802e+002 0.000000000000e+000 0.000000000000e+000
          1.104477611937e+002 0.000000000000e+000 0.000000000000e+000
          1.119402985071e+002 0.000000000000e+000 0.000000000000e+000
          1.134328358205e+002 0.000000000000e+000 0.000000000000e+000
          1.149253731340e+002 0.000000000000e+000 0.000000000000e+000
          1.164179104474e+002 0.000000000000e+000 0.000000000000e+000
          1.179104477608e+002 0.000000000000e+000 0.000000000000e+000
          1.194029850742e+002 0.000000000000e+000 0.000000000000e+000
          1.208955223877e+002 0.000000000000e+000 0.000000000000e+000
          1.223880597011e+002 0.000000000000e+000 0.000000000000e+000
          1.238805970145e+002 0.000000000000e+000 0.000000000000e+000
          1.253731343280e+002 0.000000000000e+000 0.000000000000e+000
          1.268656716414e+002 0.000000000000e+000 0.000000000000e+000
          1.283582089548e+002 0.000000000000e+000 0.000000000000e+000
          1.298507462683e+002 0.000000000000e+000 0.000000000000e+000
          1.313432835817e+002 0.000000000000e+000 0.000000000000e+000
          1.328358208952e+002 0.000000000000e+000 0.000000000000e+000
          1.343283582086e+002 0.000000000000e+000 0.000000000000e+000
          1.358208955220e+002 0.000000000000e+000 0.000000000000e+000
          1.373134328355e+002 0.000000000000e+000 0.000000000000e+000
          1.388059701489e+002 0.000000000000e+000 0.000000000000e+000
          1.402985074624e+002 0.000000000000e+000 0.000000000000e+000
          1.417910447758e+002 0.000000000000e+000 0.000000000000e+000
          1.432835820892e+002 0.000000000000e+000 0.000000000000e+000
          1.447761194027e+002 0.000000000000e+000 0.000000000000e+000
          1.462686567161e+002 0.000000000000e+000 0.000000000000e+000
          1.477611940296e+002 0.000000000000e+000 0.000000000000e+000
          1.492537313430e+002 0.000000000000e+000 0.000000000000e+000
          1.507462686564e+002 0.000000000000e+000 0.000000000000e+000
          1.522388059699e+002 0.000000000000e+000 0.000000000000e+000
          1.537313432833e+002 0.000000000000e+000 0.000000000000e+000
          1.552238805968e+002 0.000000000000e+000 0.000000000000e+000
          1.567164179102e+002 0.000000000000e+000 0.000000000000e+000
          1.582089552237e+002 0.000000000000e+000 0.000000000000e+000
          1.597014925371e+002 0.000000000000e+000 0.000000000000e+000
          1.611940298505e+002 0.000000000000e+000 0.000000000000e+000
          1.626865671640e+002 0.000000000000e+000 0.000000000000e+000
          1.641791044774e+002 0.000000000000e+000 0.000000000000e+000
          1.656716417909e+002 0.000000000000e+000 0.000000000000e+000
          1.671641791043e+002 0.000000000000e+000 0.000000000000e+000
          1.686567164177e+002 0.000000000000e+000 0.000000000000e+000
          1.701492537312e+002 0.000000000000e+000 0.000000000000e+000
          1.716417910446e+002 0.000000000000e+000 0.000000000000e+000
          1.731343283581e+002 0.000000000000e+000 0.000000000000e+000
          1.746268656715e+002 0.000000000000e+000 0.000000000000e+000
          1.761194029849e+002 0.000000000000e+000 0.000000000000e+000
          1.776119402984e+002 0.000000000000e+000 0.000000000000e+000
          1.791044776118e+002 0.000000000000e+000 0.000000000000e+000
          1.805970149253e+002 0.000000000000e+000 0.000000000000e+000
          1.820895522387e+002 0.000000000000e+000 0.000000000000e+000
          1.835820895521e+002 0.000000000000e+000 0.000000000000e+000
          1.850746268656e+002 0.000000000000e+000 0.000000000000e+000
          1.865671641790e+002 0.000000000000e+000 0.000000000000e+000
          1.880597014925e+002 0.000000000000e+000 0.000000000000e+000
          1.895522388059e+002 0.000000000000e+000 0.000000000000e+000
          1.910447761194e+002 0.000000000000e+000 0.000000000000e+000
          1.925373134328e+002 0.000000000000e+000 0.000000000000e+000
          1.940298507462e+002 0.000000000000e+000 0.000000000000e+000
          1.955223880597e+002 0.000000000000e+000 0.000000000000e+000
          1.970149253731e+002 0.000000000000e+000 0.000000000000e+000
          1.985074626866e+002 0.000000000000e+000 0.000000000000e+000
          2.000000000000e+002 1.428571428570e+000 0.000000000000e+000
          2.000000000000e+002 2.857142857140e+000 0.000000000000e+000
[...]
      <PointData Scalars="MEAN_PRESSURE">
        <DataArray type="Float64" Name="MEAN_PRESSURE" format="ascii">
          2.000000000000e+002 1.999830777197e+002 1.999830773580e+002 2.000000000000e+002 1.989834491796e+002 1.974312607080e+002 1.966723313194e+002 1.963590180931e+002 1.962851941170e+002 1.963140322080e+002 1.963745618682e+002 1.964421720230e+002 1.965092076732e+002 1.965749178670e+002 1.966400027127e+002 1.967050150596e+002 1.967701717321e+002 1.968354800414e+002 1.969008898872e+002 1.969663207768e+002 1.970317047218e+002 1.970969421061e+002 1.971619888807e+002 1.972267870675e+002 1.972912840887e+002 1.973554211019e+002 1.974191659861e+002 1.974824706252e+002 1.975452830961e+002 1.976075698904e+002 1.976692911543e+002 1.977304272444e+002 1.977909247197e+002 1.978507624574e+002 1.979099086765e+002 1.979683267713e+002 1.980260059252e+002 1.980828988743e+002 1.981389968194e+002 1.981942857244e+002 1.982487184718e+002 1.983022635698e+002 1.983549424617e+002 1.984067129417e+002 1.984575735718e+002 1.985075019464e+002 1.985565039171e+002 1.986045146749e+002 1.986515994168e+002 1.986976893984e+002 1.987427909177e+002 1.987869102925e+002 1.988300619576e+002 1.988721663827e+002 1.989133001380e+002 1.989534389775e+002 1.989925941871e+002 1.990307315324e+002 1.990678701667e+002 1.991040665868e+002 1.991392280262e+002 1.991734175596e+002 1.992066371459e+002 1.992389125577e+002 1.992702260248e+002 1.993005952643e+002 1.993300339951e+002 1.993585443856e+002 1.993861552307e+002 1.994128586104e+002 1.994386974091e+002 1.994636502255e+002 1.994877600979e+002 1.995110272412e+002 1.995334678998e+002 1.995551103241e+002 1.995759530749e+002 1.995960366043e+002 1.996153571805e+002 1.996339420203e+002 1.996517949899e+002 1.996689564587e+002 1.996854248331e+002 1.997012315777e+002 1.997163839130e+002 1.997309034907e+002 1.997448121879e+002 1.997581240878e+002 1.997708572133e+002 1.997830305956e+002 1.997946614734e+002 1.998057682263e+002 1.998163681143e+002 1.998264745601e+002 1.998361022595e+002 1.998452783187e+002 1.998540079010e+002 1.998623125871e+002 1.998702085599e+002 1.998777123204e+002 1.998848349053e+002 1.998915892250e+002 1.998979975129e+002 1.999040650728e+002 1.999098097629e+002 1.999152452076e+002 1.999203850980e+002 1.999252388428e+002 1.999298171250e+002 1.999341374485e+002 1.999382045024e+002 1.999420321162e+002 1.999456314804e+002 1.999490136759e+002 1.999521846183e+002 1.999551530425e+002 1.999579323088e+002 1.999605257683e+002 1.999629435305e+002 1.999651935096e+002 1.999672837705e+002 1.999692193143e+002 1.999710052175e+002 1.999726487103e+002 1.999741550792e+002 1.999755284396e+002 1.999767761847e+002 1.999779024003e+002 1.999789077827e+002 1.999798001514e+002 1.999805816886e+002 1.999812481801e+002 1.999818095192e+002 1.999822663982e+002 1.999826257225e+002 1.999828674841e+002 1.999830227869e+002 1.999830723528e+002 1.999830673533e+002 1.999830782080e+002 1.999830760328e+002 1.999830749711e+002 1.999830730105e+002 1.999830717259e+002 1.999830726199e+002 1.999830727240e+002 1.999830702751e+002 1.999830770558e+002 1.999830667616e+002 1.999830719503e+002 1.999830224633e+002 1.999828672312e+002 1.999826255046e+002 1.999822661814e+002 1.999818093576e+002 1.999812483562e+002 1.999805821999e+002 1.999798007452e+002 1.999789083613e+002 1.999779029699e+002 1.999767763685e+002 1.999755287365e+002 1.999741550597e+002 1.999726483432e+002 1.999710049447e+002 1.999692186761e+002 1.999672829220e+002 1.999651956431e+002 1.999629453566e+002 1.999605262685e+002 1.999579322651e+002 1.999551538141e+002 1.999521830891e+002 1.999490136172e+002 1.999456332584e+002 1.999420345169e+002 1.999382045601e+002 1.999341367860e+002 1.999298158144e+002 1.999252381670e+002 1.999203840107e+002 1.999152459160e+002 1.999098110393e+002 1.999040630330e+002 1.998979961980e+002 1.998915878847e+002 1.998848346232e+002 1.998777113146e+002 1.998702095031e+002 1.998623137153e+002 1.998540045005e+002 1.998452762696e+002 1.998361007733e+002 1.998264746086e+002 1.998163675249e+002 1.998057649228e+002 1.997946626559e+002 1.997830313831e+002 1.997708575286e+002 1.997581239684e+002 1.997448139547e+002 1.997309099513e+002 1.997163893434e+002 1.997012311583e+002 1.996854315252e+002 1.996689566881e+002 1.996517966335e+002 1.996339353758e+002 1.996153603250e+002 1.995960363745e+002 1.995759620306e+002 1.995551143168e+002 1.995334712146e+002 1.995110225333e+002 1.994877550060e+002 1.994636542164e+002 1.994386947718e+002 1.994128662732e+002 1.993861521481e+002 1.993585447633e+002 1.993300273237e+002 1.993005914578e+002 1.992702278080e+002 1.992389147570e+002 1.992066474373e+002 1.991734142878e+002 1.991392136669e+002 1.991040340362e+002 1.990678727001e+002 1.990307303916e+002 1.989925895690e+002 1.989534515414e+002 1.989133103685e+002 1.988721737439e+002 1.988300361238e+002 1.987869070256e+002 1.987427880210e+002 1.986976620823e+002 1.986515833461e+002 1.986045264180e+002 1.985564933331e+002 1.985075179411e+002 1.984575737148e+002 1.984067020861e+002 1.983549260592e+002 1.983022391258e+002 1.982486670928e+002 1.981942335460e+002 1.981389496471e+002 1.980828324412e+002 1.980259221162e+002 1.979682225363e+002 1.979097685732e+002 1.978505871970e+002 1.977907075857e+002 1.977301505275e+002 1.976689425668e+002 1.976071270087e+002 1.975447186033e+002 1.974817557631e+002 1.974182706968e+002 1.973542972814e+002 1.972898601910e+002 1.972249875047e+002 1.971597118026e+002 1.970940601168e+002 1.970280579188e+002 1.969617244295e+002 1.968950905545e+002 1.968281469540e+002 1.967609277819e+002 1.966933608760e+002 1.966253073951e+002 1.965564322369e+002 1.964860330238e+002 1.964133370962e+002 1.963393086261e+002 1.962712339712e+002 1.962392079137e+002 1.963142301270e+002 1.966236143560e+002 1.973940063445e+002 1.989446730642e+002 2.000000000000e+002 2.000000000000e+002 2.000000000000e+002 2.000000000000e+002 2.000000000000e+002 2.000000000000e+002 2.000000000000e+002 2.000000000000e+002 2.000000000000e+002 2.000000000000e+002 2.000000000000e+002 2.000000000000e+002 2.000000000000e+002 1.999807852460e+002 1.963200119228e+002 1.999734652523e+002 1.999592986587e+002 1.999359427635e+002 1.999006869389e+002 1.998491414814e+002 1.971281837293e+002 1.997770008198e+002 1.975801248506e+002 1.980008104677e+002 1.983873532224e+002 1.988893502499e+002 1.991564135091e+002 1.993724384732e+002 1.995443703576e+002 1.996772577880e+002 1.967381520223e+002 1.986515962160e+002 1.997308956498e+002 1.997302515234e+002 1.996153587985e+002 1.994636516081e+002 1.992702293689e+002 1.990307367189e+002 1.999675887083e+002 1.999495094261e+002 1.999209621986e+002 1.990307173199e+002 1.992646637350e+002 1.994656289223e+002 1.996119339000e+002 1.998785595343e+002 1.998163581782e+002 1.973519573402e+002 1.977837695455e+002 1.982004279648e+002 1.998168478912e+002 1.998777779606e+002 1.999204298362e+002 1.999490082919e+002 1.999672799515e+002 1.981936667659e+002 1.977901327916e+002 1.973545421076e+002 1.999777903953e+002 1.999777230723e+002 1.985495266218e+002 1.987546851936e+002 1.965613193310e+002 1.969051908686e+002 1.999822814338e+002 1.963311473715e+002 1.999822939937e+002 1.962961247870e+002 1.965236397756e+002 1.969568765260e+002 1.984962364694e+002 1.987931365667e+002 1.999734204040e+002 1.996772637669e+002 1.999592485238e+002 1.995443901123e+002 1.993724624916e+002 1.991564364140e+002 1.989015777357e+002 1.997768841782e+002 1.999362667999e+002 1.999016053816e+002 1.998504670916e+002 1.975752514614e+002 1.979920973999e+002 1.997771182756e+002 1.998496874567e+002 1.999010662351e+002 1.999361970778e+002 1.991563480638e+002 1.993723884519e+002 1.995443263835e+002 1.999592483501e+002 1.996775534842e+002 1.999734181593e+002 1.983809383059e+002 1.979971669259e+002 1.975760549733e+002 1.971272845784e+002 1.999804925547e+002 1.999805410341e+002 1.963389697993e+002 1.971629878049e+002 1.989215626368e+002 1.983410135708e+002 1.999826600016e+002 1.966987659251e+002 1.967440868632e+002 1.963421786854e+002 1.967350011312e+002 1.986247162236e+002 1.985243106717e+002 1.987735206372e+002 1.965304102647e+002 1.969147660962e+002 1.986526431203e+002 1.999786033236e+002 1.999247725016e+002 1.999457505529e+002 1.998841506409e+002 1.999652664627e+002 1.998254815163e+002 1.996308380644e+002 1.992955210977e+002 1.990616668237e+002 1.994854014418e+002 1.974163441385e+002 1.981443634560e+002 1.977362145224e+002 1.997177907046e+002 1.986515869977e+002 1.999828206767e+002 1.972426149771e+002 1.999828206961e+002 1.971906913108e+002 1.996404236880e+002 1.994961967585e+002 1.993112629642e+002 1.990809704447e+002 1.998018137785e+002 1.997103952709e+002 1.997496497630e+002 1.998674025001e+002 1.982680177214e+002 1.999133160215e+002 1.978719546151e+002 1.999443545954e+002 1.974412141686e+002 1.999643976025e+002 1.999643137981e+002 1.999700045586e+002 1.999442196936e+002 1.999533292478e+002 1.999128166375e+002 1.999267288889e+002 1.998666758274e+002 1.998870323202e+002 1.974505259494e+002 1.998295445223e+002 1.998017813921e+002 1.978776684703e+002 1.977107766268e+002 1.990812068077e+002 1.993124867046e+002 1.994980762166e+002 1.992285273232e+002 1.994302865370e+002 1.996396227562e+002 1.995895877524e+002 1.981349793454e+002 1.997496832228e+002 1.997132364742e+002 1.999698771933e+002 1.972666733146e+002 1.999528089656e+002 1.977173113638e+002 1.999262207459e+002 1.981271790724e+002 1.998862808909e+002 1.989722960513e+002 1.992241784730e+002 1.994269135007e+002 1.995865310814e+002 1.998285332783e+002 1.967091602208e+002 1.999762665523e+002 1.999762110151e+002 1.988014028444e+002 1.984855860712e+002 1.969924413800e+002 1.997484933462e+002 1.994310340005e+002 1.995905027885e+002 1.992300057337e+002 1.989730771814e+002 1.972713739679e+002 1.978669518821e+002 1.999697636386e+002 1.982647795142e+002 1.999530122807e+002 1.999137806622e+002 1.998027670740e+002 1.998680787267e+002 1.972897384129e+002 1.999789444417e+002 1.999789441963e+002 1.987235662594e+002 1.964870672948e+002 1.999763840665e+002 1.997592958591e+002 1.997938009169e+002 1.998616918532e+002 1.983032085579e+002 1.999093815936e+002 1.979143076847e+002 1.992041936061e+002 1.994108911044e+002 1.995744275340e+002 1.999710380467e+002 1.972243884292e+002 1.999553725949e+002 1.968697787722e+002 1.989567855836e+002 1.999817861023e+002 1.999817233910e+002 1.999753677297e+002 1.989975029118e+002 1.982419869336e+002 1.988350276693e+002 1.984500843547e+002 1.962289225532e+002 1.970394335189e+002 1.964257931515e+002 1.966041529651e+002 1.970400506007e+002 1.996509636957e+002 1.995103026612e+002 1.993291060617e+002 1.991029024545e+002 1.999422269302e+002 1.974787342106e+002 1.999630705917e+002 1.997006115942e+002 1.998358613040e+002 1.999418884817e+002 1.998918780705e+002 1.999628550588e+002 1.999300095025e+002 1.996530505124e+002 1.995102455124e+002 1.993312256905e+002 1.991055087477e+002 1.974849166833e+002 1.980845167389e+002 1.976666314135e+002 1.976664744227e+002 1.999300042926e+002 1.980804800395e+002 1.998918607817e+002 1.998364887517e+002 1.997005812362e+002 1.999828463437e+002 1.999828612099e+002 1.973451628731e+002 1.971985680717e+002 1.999819003809e+002 1.962541590317e+002 1.999797930178e+002 1.999799377088e+002 1.962553149788e+002 1.999813958080e+002 1.963884237057e+002 1.962861118072e+002 1.984371711118e+002 1.988480245795e+002 1.970768794747e+002 1.964613179816e+002 1.984025049611e+002 1.968417562752e+002 1.968293498570e+002 1.988773035395e+002 1.966617698626e+002 1.985287646678e+002 1.987186578851e+002 1.966181763989e+002 1.978961933357e+002 1.997979189054e+002 1.998641934526e+002 1.999111056959e+002 1.999548307064e+002 1.999708276868e+002 1.997543828028e+002 1.989617904979e+002 1.992133264970e+002 1.994182198146e+002 1.995801301073e+002 1.985804587407e+002 1.968414064156e+002 1.987280345241e+002 1.985673853863e+002 1.999756982171e+002 1.999812040470e+002 1.972422884341e+002 1.982781008662e+002 1.962764598188e+002 1.962649990812e+002 1.999821704600e+002 1.966446133355e+002 1.996681457234e+002 1.995324074204e+002 1.993571983878e+002 1.991375538181e+002 1.997827307475e+002 1.997711467712e+002 1.996864199939e+002 1.998543935549e+002 1.999043317645e+002 1.983524578357e+002 1.999383822937e+002 1.979654744162e+002 1.999606378794e+002 1.975417795225e+002 1.999726090798e+002 1.999605514172e+002 1.999384469815e+002 1.999045125099e+002 1.998546520615e+002 1.975413159078e+002 1.979637648525e+002 1.991388285402e+002 1.993569793167e+002 1.995322360300e+002 1.999725715676e+002 1.971628649198e+002 1.989171603527e+002 1.999735324922e+002 1.999801887986e+002 1.999801895509e+002 1.971933809393e+002 1.970233769627e+002 1.963737561988e+002 1.987018445944e+002 1.999683741060e+002 1.999507955773e+002 1.999175649036e+002 1.998735916813e+002 1.998096034679e+002 1.973190976357e+002 1.978240883410e+002 1.982245504658e+002 1.996053425056e+002 1.992539642316e+002 1.990112220150e+002 1.994477054012e+002 1.997399179219e+002 1.999771760582e+002 1.999824036503e+002 1.999824039385e+002 1.999588044120e+002 1.999020344663e+002 1.998510849359e+002 1.979879864807e+002 1.991622300641e+002 1.993771380546e+002 1.995480511209e+002 1.963836570569e+002 1.986015079644e+002 1.997792741169e+002 1.997747942226e+002 1.989006445994e+002 1.999829617794e+002 1.980759667759e+002 1.983157855539e+002 1.989443731626e+002 1.998159728519e+002 1.998774324405e+002 1.999201933753e+002 1.999672809277e+002 1.999490170728e+002 1.981962553167e+002 1.977929387674e+002 1.973543258073e+002 1.994636477028e+002 1.996153565137e+002 1.990307190699e+002 1.992702206674e+002 1.999672793331e+002 1.999490103255e+002 1.992701995626e+002 1.994640525903e+002 1.999203771575e+002 1.996155097052e+002 1.998777024164e+002 1.998164522992e+002 1.977909016361e+002 1.997314245563e+002 1.997308937802e+002 1.968014650925e+002 1.984510108285e+002 1.967772836017e+002 1.989766786175e+002 1.986632620012e+002 1.999792105208e+002 1.999791200563e+002 1.987858392904e+002 1.988104322932e+002 1.986845383422e+002 1.997881161806e+002 1.996616306122e+002 1.996923307962e+002 1.997654284602e+002 1.995642001326e+002 1.993977873429e+002 1.991878719527e+002 1.998413692059e+002 1.976342692505e+002 1.980506600651e+002 1.999569329298e+002 1.999323011193e+002 1.998952704007e+002 1.999567550339e+002 1.976338953299e+002 1.999323031464e+002 1.980505865872e+002 1.991878809722e+002 1.993977951290e+002 1.995612831211e+002 1.998952723341e+002 1.998413707589e+002 1.965046876484e+002 1.964477765951e+002 1.999824643304e+002 1.964573963211e+002 1.996778662358e+002 1.996766599232e+002 1.975745835891e+002 1.975738592832e+002 1.999363440784e+002 1.999363106168e+002 1.999816109314e+002 1.966613548930e+002 1.963152015564e+002 1.971665081079e+002 1.967296161928e+002 1.999829712085e+002 1.981976539371e+002 1.999829772127e+002 1.980700851446e+002 1.965644433786e+002 1.999747126551e+002 1.999747389452e+002 1.998494441605e+002 1.999008968769e+002 1.979988132179e+002 1.995434357626e+002 1.991549268904e+002 1.993712379330e+002 1.999592740737e+002 1.969462257697e+002 1.969579355802e+002 1.964287822586e+002 1.988562059287e+002 1.984266815858e+002 1.964330760963e+002 1.970692166326e+002 1.973698020409e+002 1.985181401275e+002 1.970074609738e+002 1.999776511604e+002 1.999776513855e+002 1.984813837333e+002 1.988244440577e+002 1.999762120033e+002 1.983417797000e+002 1.988321281846e+002 1.987818689830e+002 1.999531260696e+002 1.972673612919e+002 1.999698593108e+002 1.992045187307e+002 1.994106796319e+002 1.995746297444e+002 1.997600718003e+002 1.978741160139e+002 1.999131203973e+002 1.982694629715e+002 1.998671180437e+002 1.997929400212e+002 1.999733773144e+002 1.968315656348e+002 1.987242440592e+002 1.986139991733e+002 1.983794226197e+002 1.965686784123e+002 1.999829865762e+002 1.983265437492e+002 1.999829869150e+002 1.984687253918e+002 1.962374613584e+002 1.971304415954e+002 1.986443999456e+002 1.985196875098e+002 1.999816623428e+002 1.981746460734e+002 1.990415812701e+002 1.969523826967e+002 1.988619114549e+002 1.966818590740e+002 1.998292335854e+002 1.998867735845e+002 1.999265557398e+002 1.981230807413e+002 1.977128687936e+002 1.999303320789e+002 1.999626966542e+002 1.998923552350e+002 1.999416477832e+002 1.998372047511e+002 1.976619797592e+002 1.980762182117e+002 1.974892052880e+002 1.991077872215e+002 1.995136947271e+002 1.993330169601e+002 1.996538512819e+002 1.999642563926e+002 1.999441297604e+002 1.974452992398e+002 1.997121228999e+002 1.990781922731e+002 1.993089963228e+002 1.994944025824e+002 1.996390416085e+002 1.996996260648e+002 1.997308996782e+002 1.996153287941e+002 1.992701922738e+002 1.994636437433e+002 1.990307006347e+002 1.999672822666e+002 1.999490111839e+002 1.999204495831e+002 1.998163625642e+002 1.998778079282e+002 1.973553389685e+002 1.977899520623e+002 1.981941954830e+002 1.984218009572e+002 1.970482931192e+002 1.999815709408e+002 1.962507575910e+002 1.996977786430e+002 1.996556490828e+002 1.995156882271e+002 1.993359524511e+002 1.991113355187e+002 1.999410614653e+002 1.999623447247e+002 1.974983238429e+002 1.999307822311e+002 1.998928944664e+002 1.998378862978e+002 1.976554509977e+002 1.980719699175e+002 1.986357661813e+002 1.999777912629e+002 1.985978305083e+002 1.999785721639e+002 1.997289972216e+002 1.997321253983e+002 1.996194078896e+002 1.994688230690e+002 1.992768325690e+002 1.990388066035e+002 1.999670130832e+002 1.999485735998e+002 1.999194539998e+002 1.998763519450e+002 1.998177254892e+002 1.978019687082e+002 1.998154690056e+002 1.992743023340e+002 1.994603765035e+002 1.996178595344e+002 1.998772256869e+002 1.999200517191e+002 1.981977694567e+002 1.999490493145e+002 1.977946181027e+002 1.999673052290e+002 1.973535673346e+002 1.967396179733e+002 1.999462222761e+002 1.974076510288e+002 1.999655598456e+002 1.992939702004e+002 1.996298949571e+002 1.994837891282e+002 1.990597656719e+002 1.977446304416e+002 1.999240975183e+002 1.981521129423e+002 1.998831588950e+002 1.998239018924e+002 1.997201555947e+002 1.963150793747e+002 1.999829791733e+002 1.982465449006e+002 1.999796656954e+002 1.999811014106e+002 1.999811006816e+002 1.985871364137e+002 1.987141228752e+002 1.969329481219e+002 1.973642459309e+002 1.999754364015e+002 1.962837878684e+002 1.999776446130e+002 1.999776139883e+002 1.971095351049e+002 1.997925248448e+002 1.998609190459e+002 1.983095270769e+002 1.999088479693e+002 1.979199182944e+002 1.995760846009e+002 1.994109038738e+002 1.992068550255e+002 1.997598561131e+002 1.999712823540e+002 1.972088519681e+002 1.999556438769e+002 1.983775481595e+002 1.988970963762e+002 1.985550522941e+002 1.965499623046e+002 1.964082363277e+002 1.999827058944e+002 1.968414637681e+002 1.999827057662e+002 1.967596723388e+002 1.990441268527e+002 1.981761893328e+002 1.989438965628e+002 1.966072518304e+002 1.999719323820e+002 1.964598299109e+002 1.984916936093e+002 1.987613487223e+002 1.985470842029e+002 1.969132162418e+002 1.965517967342e+002 1.967551134343e+002 1.982565241853e+002 1.965496016947e+002 1.968246228257e+002 1.985769540563e+002 1.963405307364e+002 1.964827274417e+002 1.986780405783e+002 1.984632374365e+002 1.987706913180e+002 1.985126050073e+002 1.999805377760e+002 1.962696040928e+002 1.972503450575e+002 1.997416379849e+002 1.997647210182e+002 1.999718857261e+002 1.999566841551e+002 1.999689688692e+002 1.999516311389e+002 1.999089927223e+002 1.998611277815e+002 1.979186366834e+002 1.998082922050e+002 1.997887747197e+002 1.989946260340e+002 1.989384966278e+002 1.992409702629e+002 1.991902531075e+002 1.993997021918e+002 1.994403693118e+002 1.995972352682e+002 1.995656343971e+002 1.962850595601e+002 1.999822604132e+002 1.999822532208e+002 1.999826750473e+002 1.999826752141e+002 1.965085537874e+002 1.999825615295e+002 1.996428455708e+002 1.994993496758e+002 1.993152450321e+002 1.990858560498e+002 1.997089429758e+002 1.997514629823e+002 1.998003491546e+002 1.998663592568e+002 1.982752362439e+002 1.999125988029e+002 1.978799078343e+002 1.999438814868e+002 1.974496968234e+002 1.999641027850e+002 1.999640988326e+002 1.999438749924e+002 1.999701296113e+002 1.999125648370e+002 1.998663097164e+0