<?xml version="1.0"?>
<VTKFile type="UnstructuredGrid" version="0.1" byte_order="LittleEndian">
  <UnstructuredGrid>
    <Piece NumberOfPoints="2604" NumberOfCells="4910">
      <Points>
        <DataArray type="Float64" NumberOfComponents="3" format="ascii">
          0.000000000000e+000 0.000000000000e+000 0.000000000000e+000
          2.000000000000e+002 0.000000000000e+000 0.000000000000e+000
          2.000000000000e+002 2.000000000000e+001 0.000000000000e+000
          0.000000000000e+000 2.000000000000e+001 0.000000000000e+000
          1.492537313427e+000 0.000000000000e+000 0.000000000000e+000
          2.985074626854e+000 0.000000000000e+000 0.000000000000e+000
          4.477611940281e+000 0.000000000000e+000 0.000000000000e+000
          5.970149253708e+000 0.000000000000e+000 0.000000000000e+000
          7.462686567135e+000 0.000000000000e+000 0.000000000000e+000
          8.955223880561e+000 0.000000000000e+000 0.000000000000e+000
          1.044776119399e+001 0.000000000000e+000 0.000000000000e+000
          1.194029850741e+001 0.000000000000e+000 0.000000000000e+000
          1.343283582084e+001 0.000000000000e+000 0.000000000000e+000
          1.492537313427e+001 0.000000000000e+000 0.000000000000e+000
          1.641791044770e+001 0.000000000000e+000 0.000000000000e+000
          1.791044776112e+001 0.000000000000e+000 0.000000000000e+000
          1.940298507455e+001 0.000000000000e+000 0.000000000000e+000
          2.089552238798e+001 0.000000000000e+000 0.000000000000e+000
          2.238805970141e+001 0.000000000000e+000 0.000000000000e+000
          2.388059701484e+001 0.000000000000e+000 0.000000000000e+000
          2.537313432826e+001 0.000000000000e+000 0.000000000000e+000
          2.686567164169e+001 0.000000000000e+000 0.000000000000e+000
          2.835820895511e+001 0.000000000000e+000 0.000000000000e+000
          2.985074626854e+001 0.000000000000e+000 0.000000000000e+000
          3.134328358196e+001 0.000000000000e+000 0.000000000000e+000
          3.283582089539e+001 0.000000000000e+000 0.000000000000e+000
          3.432835820881e+001 0.000000000000e+000 0.000000000000e+000
          3.582089552224e+001 0.000000000000e+000 0.000000000000e+000
          3.731343283566e+001 0.000000000000e+000 0.000000000000e+000
          3.880597014909e+001 0.000000000000e+000 0.000000000000e+000
          4.029850746251e+001 0.000000000000e+000 0.000000000000e+000
          4.179104477594e+001 0.000000000000e+000 0.000000000000e+000
          4.328358208936e+001 0.000000000000e+000 0.000000000000e+000
          4.477611940279e+001 0.000000000000e+000 0.000000000000e+000
          4.626865671621e+001 0.000000000000e+000 0.000000000000e+000
          4.776119402964e+001 0.000000000000e+000 0.000000000000e+000
          4.925373134306e+001 0.000000000000e+000 0.000000000000e+000
          5.074626865649e+001 0.000000000000e+000 0.000000000000e+000
          5.223880596991e+001 0.000000000000e+000 0.000000000000e+000
          5.373134328334e+001 0.000000000000e+000 0.000000000000e+000
          5.522388059676e+001 0.000000000000e+000 0.000000000000e+000
          5.671641791019e+001 0.000000000000e+000 0.000000000000e+000
          5.820895522361e+001 0.000000000000e+000 0.000000000000e+000
          5.970149253704e+001 0.000000000000e+000 0.000000000000e+000
          6.119402985046e+001 0.000000000000e+000 0.000000000000e+000
          6.268656716389e+001 0.000000000000e+000 0.000000000000e+000
          6.417910447732e+001 0.000000000000e+000 0.000000000000e+000
          6.567164179075e+001 0.000000000000e+000 0.000000000000e+000
          6.716417910418e+001 0.000000000000e+000 0.000000000000e+000
          6.865671641761e+001 0.000000000000e+000 0.000000000000e+000
          7.014925373104e+001 0.000000000000e+000 0.000000000000e+000
          7.164179104447e+001 0.000000000000e+000 0.000000000000e+000
          7.313432835790e+001 0.000000000000e+000 0.000000000000e+000
          7.462686567133e+001 0.000000000000e+000 0.000000000000e+000
          7.611940298476e+001 0.000000000000e+000 0.000000000000e+000
          7.761194029819e+001 0.000000000000e+000 0.000000000000e+000
          7.910447761162e+001 0.000000000000e+000 0.000000000000e+000
          8.059701492505e+001 0.000000000000e+000 0.000000000000e+000
          8.208955223848e+001 0.000000000000e+000 0.000000000000e+000
          8.358208955191e+001 0.000000000000e+000 0.000000000000e+000
          8.507462686534e+001 0.000000000000e+000 0.000000000000e+000
          8.656716417877e+001 0.000000000000e+000 0.000000000000e+000
          8.805970149220e+001 0.000000000000e+000 0.000000000000e+000
          8.955223880563e+001 0.000000000000e+000 0.000000000000e+000
          9.104477611907e+001 0.000000000000e+000 0.000000000000e+000
          9.253731343250e+001 0.000000000000e+000 0.000000000000e+000
          9.402985074593e+001 0.000000000000e+000 0.000000000000e+000
          9.552238805936e+001 0.000000000000e+000 0.000000000000e+000
          9.701492537279e+001 0.000000000000e+000 0.000000000000e+000
          9.850746268622e+001 0.000000000000e+000 0.000000000000e+000
          9.999999999965e+001 0.000000000000e+000 0.000000000000e+000
          1.014925373131e+002 0.000000000000e+000 0.000000000000e+000
          1.029850746265e+002 0.000000000000e+000 0.000000000000e+000
          1.044776119399e+002 0.000000000000e+000 0.000000000000e+000
          1.059701492534e+002 0.000000000000e+000 0.000000000000e+000
          1.074626865668e+002 0.000000000000e+000 0.000000000000e+000
          1.089552238802e+002 0.000000000000e+000 0.000000000000e+000
          1.104477611937e+002 0.000000000000e+000 0.000000000000e+000
          1.119402985071e+002 0.000000000000e+000 0.000000000000e+000
          1.134328358205e+002 0.000000000000e+000 0.000000000000e+000
          1.149253731340e+002 0.000000000000e+000 0.000000000000e+000
          1.164179104474e+002 0.000000000000e+000 0.000000000000e+000
          1.179104477608e+002 0.000000000000e+000 0.000000000000e+000
          1.194029850742e+002 0.000000000000e+000 0.000000000000e+000
          1.208955223877e+002 0.000000000000e+000 0.000000000000e+000
          1.223880597011e+002 0.000000000000e+000 0.000000000000e+000
          1.238805970145e+002 0.000000000000e+000 0.000000000000e+000
          1.253731343280e+002 0.000000000000e+000 0.000000000000e+000
          1.268656716414e+002 0.000000000000e+000 0.000000000000e+000
          1.283582089548e+002 0.000000000000e+000 0.000000000000e+000
          1.298507462683e+002 0.000000000000e+000 0.000000000000e+000
          1.313432835817e+002 0.000000000000e+000 0.000000000000e+000
          1.328358208952e+002 0.000000000000e+000 0.000000000000e+000
          1.343283582086e+002 0.000000000000e+000 0.000000000000e+000
          1.358208955220e+002 0.000000000000e+000 0.000000000000e+000
          1.373134328355e+002 0.000000000000e+000 0.000000000000e+000
          1.388059701489e+002 0.000000000000e+000 0.000000000000e+000
          1.402985074624e+002 0.000000000000e+000 0.000000000000e+000
          1.417910447758e+002 0.000000000000e+000 0.000000000000e+000
          1.432835820892e+002 0.000000000000e+000 0.000000000000e+000
          1.447761194027e+002 0.000000000000e+000 0.000000000000e+000
          1.462686567161e+002 0.000000000000e+000 0.000000000000e+000
          1.477611940296e+002 0.000000000000e+000 0.000000000000e+000
          1.492537313430e+002 0.000000000000e+000 0.000000000000e+000
          1.507462686564e+002 0.000000000000e+000 0.000000000000e+000
          1.522388059699e+002 0.000000000000e+000 0.000000000000e+000
          1.537313432833e+002 0.000000000000e+000 0.000000000000e+000
          1.552238805968e+002 0.000000000000e+000 0.000000000000e+000
          1.567164179102e+002 0.000000000000e+000 0.000000000000e+000
          1.582089552237e+002 0.000000000000e+000 0.000000000000e+000
          1.597014925371e+002 0.000000000000e+000 0.000000000000e+000
          1.611940298505e+002 0.000000000000e+000 0.000000000000e+000
          1.626865671640e+002 0.000000000000e+000 0.000000000000e+000
          1.641791044774e+002 0.000000000000e+000 0.000000000000e+000
          1.656716417909e+002 0.000000000000e+000 0.000000000000e+000
          1.671641791043e+002 0.000000000000e+000 0.000000000000e+000
          1.686567164177e+002 0.000000000000e+000 0.000000000000e+000
          1.701492537312e+002 0.000000000000e+000 0.000000000000e+000
          1.716417910446e+002 0.000000000000e+000 0.000000000000e+000
          1.731343283581e+002 0.000000000000e+000 0.000000000000e+000
          1.746268656715e+002 0.000000000000e+000 0.000000000000e+000
          1.761194029849e+002 0.000000000000e+000 0.000000000000e+000
          1.776119402984e+002 0.000000000000e+000 0.000000000000e+000
          1.791044776118e+002 0.000000000000e+000 0.000000000000e+000
          1.805970149253e+002 0.000000000000e+000 0.000000000000e+000
          1.820895522387e+002 0.000000000000e+000 0.000000000000e+000
          1.835820895521e+002 0.000000000000e+000 0.000000000000e+000
          1.850746268656e+002 0.000000000000e+000 0.000000000000e+000
          1.865671641790e+002 0.000000000000e+000 0.000000000000e+000
          1.880597014925e+002 0.000000000000e+000 0.000000000000e+000
          1.895522388059e+002 0.000000000000e+000 0.000000000000e+000
          1.910447761194e+002 0.000000000000e+000 0.000000000000e+000
          1.925373134328e+002 0.000000000000e+000 0.000000000000e+000
          1.940298507462e+002 0.000000000000e+000 0.000000000000e+000
          1.955223880597e+002 0.000000000000e+000 0.000000000000e+000
          1.970149253731e+002 0.000000000000e+000 0.000000000000e+000
          1.985074626866e+002 0.000000000000e+000 0.000000000000e+000
          2.000000000000e+002 1.428571428570e+000 0.000000000000e+000
          2.000000000000e+002 2.857142857140e+000 0.000000000000e+000
[...]
      <PointData Scalars="MEAN_PRESSURE">
        <DataArray type="Float64" Name="MEAN_PRESSURE" format="ascii">
          2.000000000000e+002 1.999528164645e+002 1.999528157887e+002 2.000000000000e+002 1.990981526391e+002 1.976356189377e+002 1.968628773522e+002 1.964962172355e+002 1.963704164596e+002 1.963653278723e+002 1.964071380463e+002 1.964651440162e+002 1.965258552435e+002 1.965856373616e+002 1.966442839609e+002 1.967022889804e+002 1.967600873263e+002 1.968178773971e+002 1.968757291063e+002 1.969336274657e+002 1.969915353775e+002 1.970493801051e+002 1.971071275791e+002 1.971647320591e+002 1.972221517181e+002 1.972793423704e+002 1.973362785991e+002 1.973929239260e+002 1.974492391953e+002 1.975051986447e+002 1.975607720142e+002 1.976159428862e+002 1.976706715309e+002 1.977249407513e+002 1.977787257379e+002 1.978319981350e+002 1.978847477486e+002 1.979369384587e+002 1.979885612975e+002 1.980396035669e+002 1.980900286257e+002 1.981398106431e+002 1.981889621873e+002 1.982374494177e+002 1.982852681318e+002 1.983323985880e+002 1.983788418309e+002 1.984245460282e+002 1.984695563420e+002 1.985138174933e+002 1.985573303452e+002 1.986000957040e+002 1.986421207293e+002 1.986833400296e+002 1.987238082731e+002 1.987635025112e+002 1.988024272012e+002 1.988405508117e+002 1.988778836256e+002 1.989144660999e+002 1.989502191833e+002 1.989851883122e+002 1.990193701305e+002 1.990527806930e+002 1.990854002679e+002 1.991172382324e+002 1.991483007220e+002 1.991785840840e+002 1.992081071987e+002 1.992368578755e+002 1.992648673071e+002 1.992921114616e+002 1.993186220940e+002 1.993443938222e+002 1.993694351445e+002 1.993937655115e+002 1.994173779469e+002 1.994403032956e+002 1.994625324366e+002 1.994840845779e+002 1.995049575405e+002 1.995251831913e+002 1.995447544123e+002 1.995636953384e+002 1.995820072382e+002 1.995997052080e+002 1.996168050118e+002 1.996333148922e+002 1.996492471652e+002 1.996646153240e+002 1.996794313598e+002 1.996937085784e+002 1.997074594124e+002 1.997206924243e+002 1.997334177036e+002 1.997456587694e+002 1.997574159878e+002 1.997687075975e+002 1.997795462499e+002 1.997899452500e+002 1.997999119445e+002 1.998094559880e+002 1.998185980149e+002 1.998273393678e+002 1.998356962521e+002 1.998436801651e+002 1.998513029921e+002 1.998585715702e+002 1.998654945105e+002 1.998720892674e+002 1.998783573646e+002 1.998843122266e+002 1.998899641775e+002 1.998953237072e+002 1.999003945354e+002 1.999051844114e+002 1.999097078058e+002 1.999139654594e+002 1.999179679038e+002 1.999217228190e+002 1.999252384192e+002 1.999285185892e+002 1.999315674980e+002 1.999343928467e+002 1.999369996546e+002 1.999393913094e+002 1.999415768097e+002 1.999435601271e+002 1.999453397323e+002 1.999469264489e+002 1.999483218342e+002 1.999495164107e+002 1.999505255861e+002 1.999513491312e+002 1.999519981690e+002 1.999524356472e+002 1.999527169118e+002 1.999528067386e+002 1.999527976802e+002 1.999528173497e+002 1.999528134059e+002 1.999528114776e+002 1.999528079263e+002 1.999528055980e+002 1.999528072157e+002 1.999528074034e+002 1.999528029638e+002 1.999528152462e+002 1.999527965893e+002 1.999528059893e+002 1.999527163053e+002 1.999524351697e+002 1.999519977567e+002 1.999513487223e+002 1.999505252761e+002 1.999495166971e+002 1.999483227064e+002 1.999469274547e+002 1.999453406968e+002 1.999435610557e+002 1.999415770796e+002 1.999393917568e+002 1.999369995850e+002 1.999343922146e+002 1.999315670277e+002 1.999285175577e+002 1.999252370812e+002 1.999217259878e+002 1.999179705757e+002 1.999139661694e+002 1.999097077019e+002 1.999051854221e+002 1.999003923303e+002 1.998953235199e+002 1.998899664969e+002 1.998843153565e+002 1.998783574068e+002 1.998720883645e+002 1.998654927583e+002 1.998585706230e+002 1.998513015567e+002 1.998436809680e+002 1.998356977158e+002 1.998273368736e+002 1.998185964023e+002 1.998094543614e+002 1.997999115686e+002 1.997899440940e+002 1.997795473387e+002 1.997687088733e+002 1.997574122925e+002 1.997456565706e+002 1.997334161312e+002 1.997206925196e+002 1.997074588548e+002 1.996937051989e+002 1.996794326332e+002 1.996646161856e+002 1.996492475293e+002 1.996333147991e+002 1.996168067586e+002 1.995997115243e+002 1.995820125036e+002 1.995636949407e+002 1.995447608196e+002 1.995251834406e+002 1.995049590592e+002 1.994840783534e+002 1.994625352381e+002 1.994403029733e+002 1.994173859487e+002 1.993937689942e+002 1.993694379891e+002 1.993443895239e+002 1.993186174904e+002 1.992921148047e+002 1.992648648678e+002 1.992368643025e+002 1.992081044311e+002 1.991785842707e+002 1.991482949778e+002 1.991172349265e+002 1.990854016229e+002 1.990527823797e+002 1.990193784638e+002 1.989851855952e+002 1.989502075536e+002 1.989144399599e+002 1.988778855924e+002 1.988405498419e+002 1.988024234829e+002 1.987635122142e+002 1.987238160722e+002 1.986833455039e+002 1.986421005738e+002 1.986000928542e+002 1.985573276949e+002 1.985137961755e+002 1.984695433403e+002 1.984245536875e+002 1.983788324176e+002 1.983324084618e+002 1.982852656585e+002 1.982374381019e+002 1.981889458869e+002 1.981397873207e+002 1.980899842792e+002 1.980395567705e+002 1.979885156371e+002 1.979368758531e+002 1.978846687710e+002 1.978318995124e+002 1.977785952020e+002 1.977247770883e+002 1.976704677505e+002 1.976156836322e+002 1.975604452147e+002 1.975047841604e+002 1.974487119796e+002 1.973922565366e+002 1.973354408698e+002 1.972782888106e+002 1.972208172462e+002 1.971630455065e+002 1.971049949356e+002 1.970466825024e+002 1.969881222813e+002 1.969293225067e+002 1.968702936905e+002 1.968110010056e+002 1.967514135891e+002 1.966913459145e+002 1.966304800541e+002 1.965683016563e+002 1.965041560050e+002 1.964383152954e+002 1.963747696408e+002 1.963259173259e+002 1.963295415803e+002 1.964574041606e+002 1.968206928056e+002 1.976043830452e+002 1.990649163202e+002 2.000000000000e+002 2.000000000000e+002 2.000000000000e+002 2.000000000000e+002 2.000000000000e+002 2.000000000000e+002 2.000000000000e+002 2.000000000000e+002 2.000000000000e+002 2.000000000000e+002 2.000000000000e+002 2.000000000000e+002 2.000000000000e+002 1.999486863615e+002 1.963606803876e+002 1.999358044899e+002 1.999119476926e+002 1.998748651821e+002 1.998224634278e+002 1.997508502978e+002 1.970770418643e+002 1.996569889298e+002 1.974805195558e+002 1.978616876334e+002 1.982193002703e+002 1.987002193881e+002 1.989677771962e+002 1.991934207903e+002 1.993816729493e+002 1.995350324839e+002 1.967314703251e+002 1.984695536138e+002 1.995996974730e+002 1.995989053956e+002 1.994625338489e+002 1.992921126368e+002 1.990854030286e+002 1.988405549399e+002 1.999257529577e+002 1.998961124224e+002 1.998521656355e+002 1.988405395650e+002 1.990795957404e+002 1.992942796087e+002 1.994585848546e+002 1.997911283462e+002 1.997074490935e+002 1.972762368360e+002 1.976641934394e+002 1.980452903162e+002 1.997080847959e+002 1.997900388628e+002 1.998513711288e+002 1.998953163208e+002 1.999252325643e+002 1.980390366590e+002 1.976699515452e+002 1.972785206513e+002 1.999433625057e+002 1.999432437398e+002 1.983722233439e+002 1.985688409845e+002 1.965727831350e+002 1.968792996254e+002 1.999513762376e+002 1.964728132040e+002 1.999513989505e+002 1.964464635296e+002 1.965388770927e+002 1.969252181910e+002 1.983217383695e+002 1.986061437507e+002 1.999357259261e+002 1.995350381060e+002 1.999118646600e+002 1.993816905661e+002 1.991934411492e+002 1.989677956790e+002 1.987122533591e+002 1.996568412615e+002 1.998753658372e+002 1.998237871828e+002 1.997526353562e+002 1.974761506522e+002 1.978537194780e+002 1.996571374246e+002 1.997515858305e+002 1.998230100926e+002 1.998752572727e+002 1.989677140144e+002 1.991933698071e+002 1.993816266447e+002 1.999118645111e+002 1.995353852421e+002 1.999357223293e+002 1.982132836241e+002 1.978583544852e+002 1.974768569197e+002 1.970762009878e+002 1.999481624990e+002 1.999482491841e+002 1.963739381246e+002 1.971079978935e+002 1.987319637047e+002 1.981759464528e+002 1.999520602116e+002 1.968994018453e+002 1.967369108633e+002 1.963810821511e+002 1.967284399548e+002 1.984438357987e+002 1.983483073968e+002 1.985870995587e+002 1.965448523357e+002 1.968878583803e+002 1.984705579495e+002 1.999447997972e+002 1.998578712790e+002 1.998901543621e+002 1.997989515415e+002 1.999218463150e+002 1.997193938479e+002 1.994804795092e+002 1.991119108926e+002 1.988716383469e+002 1.993160297236e+002 1.973337415314e+002 1.979935160721e+002 1.976211701166e+002 1.995837246148e+002 1.984695464476e+002 1.999523509092e+002 1.974498083451e+002 1.999523509238e+002 1.974037221346e+002 1.994916488149e+002 1.993279519811e+002 1.991284776607e+002 1.988911072793e+002 1.996886147512e+002 1.995747517010e+002 1.996227929508e+002 1.997756854195e+002 1.981079586399e+002 1.998408396929e+002 1.977441956600e+002 1.998879548813e+002 1.973559677856e+002 1.999203920723e+002 1.999202509499e+002 1.999298571549e+002 1.998877406066e+002 1.999022382040e+002 1.998401033918e+002 1.998608203805e+002 1.997746842649e+002 1.998030106496e+002 1.973643263629e+002 1.997247407745e+002 1.996885736523e+002 1.977493901689e+002 1.975982003339e+002 1.988913310138e+002 1.991297612003e+002 1.993300298842e+002 1.990420144010e+002 1.992557336738e+002 1.994907129368e+002 1.994329281829e+002 1.979848591202e+002 1.996228352085e+002 1.995781924372e+002 1.999296394117e+002 1.972001645214e+002 1.999013994715e+002 1.976040889651e+002 1.998600520807e+002 1.979776737857e+002 1.998019493194e+002 1.987822219546e+002 1.990375003235e+002 1.992520674656e+002 1.994294283388e+002 1.997234058856e+002 1.967055545080e+002 1.999406829104e+002 1.999405856575e+002 1.986141898940e+002 1.983116870655e+002 1.969565592981e+002 1.996213604903e+002 1.992565473233e+002 1.994339768991e+002 1.990435494387e+002 1.987830030634e+002 1.972043859816e+002 1.977396490982e+002 1.999294461986e+002 1.981049454881e+002 1.999017268749e+002 1.998415227833e+002 1.996898416370e+002 1.997766141849e+002 1.972207724026e+002 1.999454047021e+002 1.999454043088e+002 1.985387629565e+002 1.965050756132e+002 1.999408888375e+002 1.996347759391e+002 1.996783333313e+002 1.997678600185e+002 1.981406891854e+002 1.998350705835e+002 1.977827301317e+002 1.990168483463e+002 1.992347339287e+002 1.994156428097e+002 1.999316235605e+002 1.971625371843e+002 1.999055401729e+002 1.968481892488e+002 1.987668254627e+002 1.999504833425e+002 1.999503705399e+002 1.999391104011e+002 1.988073274997e+002 1.980837868491e+002 1.986469821229e+002 1.982782167025e+002 1.963195717991e+002 1.969982617643e+002 1.964494287837e+002 1.966120343000e+002 1.969989222070e+002 1.995039826084e+002 1.993435886910e+002 1.991473209598e+002 1.989132936862e+002 1.998846158159e+002 1.973895566883e+002 1.999181785711e+002 1.995629426959e+002 1.997330914235e+002 1.998840850582e+002 1.998098625679e+002 1.999178191972e+002 1.998657851947e+002 1.995064323537e+002 1.993435229140e+002 1.991495668858e+002 1.989159390470e+002 1.973951030128e+002 1.979384160678e+002 1.975583674271e+002 1.975582233952e+002 1.998657785475e+002 1.979347163795e+002 1.998098424730e+002 1.997339327264e+002 1.995629133488e+002 1.999523973422e+002 1.999524242631e+002 1.975540862629e+002 1.974131057669e+002 1.999506892598e+002 1.963505224640e+002 1.999469136124e+002 1.999471717210e+002 1.963171318268e+002 1.999497815427e+002 1.964171716619e+002 1.963844243145e+002 1.982660573537e+002 1.986596737101e+002 1.970315388535e+002 1.964823130561e+002 1.982334999610e+002 1.968230725854e+002 1.968123546583e+002 1.986883800379e+002 1.966635812986e+002 1.983525241944e+002 1.985340248107e+002 1.966240967559e+002 1.977662372217e+002 1.996836007635e+002 1.997712778992e+002 1.998375916329e+002 1.999046610711e+002 1.999312629347e+002 1.996286556309e+002 1.987717875633e+002 1.990262771519e+002 1.992426535015e+002 1.994221307376e+002 1.984016262817e+002 1.968228696667e+002 1.985430723211e+002 1.983891792938e+002 1.999396876497e+002 1.999494372635e+002 1.971785054728e+002 1.981173285272e+002 1.963419504393e+002 1.963950744611e+002 1.999511760310e+002 1.966480593417e+002 1.995242287452e+002 1.993682530353e+002 1.991771557120e+002 1.989485215088e+002 1.996642380457e+002 1.996496140769e+002 1.995459464174e+002 1.997579415869e+002 1.998277282118e+002 1.981866418668e+002 1.998786345245e+002 1.978293950472e+002 1.999141514076e+002 1.974460784596e+002 1.999343247618e+002 1.999140081830e+002 1.998787341078e+002 1.998279904200e+002 1.997582929041e+002 1.974456812007e+002 1.978278380751e+002 1.989498187740e+002 1.991769215023e+002 1.993680603600e+002 1.999342601895e+002 1.971078026425e+002 1.987276181034e+002 1.999359202736e+002 1.999476198915e+002 1.999476211849e+002 1.971350210092e+002 1.969840707399e+002 1.964032876049e+002 1.985178243975e+002 1.999270835494e+002 1.998981682422e+002 1.998471123478e+002 1.997842235794e+002 1.996986703404e+002 1.972469065335e+002 1.977007299281e+002 1.980676230993e+002 1.994509891473e+002 1.990684355034e+002 1.988210245730e+002 1.992746785817e+002 1.996107712592e+002 1.999422796618e+002 1.999515968998e+002 1.999515974348e+002 1.999111356586e+002 1.998244056607e+002 1.997534677876e+002 1.978499601741e+002 1.989737259031e+002 1.991984450195e+002 1.993858107969e+002 1.965512790066e+002 1.984216805806e+002 1.996598578701e+002 1.996542029372e+002 1.987113322042e+002 1.999526063886e+002 1.982493106984e+002 1.981524077450e+002 1.987545145455e+002 1.997069468886e+002 1.997895575539e+002 1.998510187490e+002 1.999252340636e+002 1.998953300723e+002 1.980414303702e+002 1.976724919485e+002 1.972783175762e+002 1.992921091788e+002 1.994625317345e+002 1.988405409118e+002 1.990853957541e+002 1.999252316208e+002 1.998953190414e+002 1.990853784002e+002 1.992925583814e+002 1.998512930428e+002 1.994627148201e+002 1.997899339688e+002 1.997075726114e+002 1.976706537399e+002 1.996003448783e+002 1.995996956963e+002 1.967874332502e+002 1.982790903159e+002 1.967663646436e+002 1.987865906619e+002 1.984807404083e+002 1.999458773649e+002 1.999457166869e+002 1.985990595474e+002 1.986229871661e+002 1.985011695980e+002 1.996710774596e+002 1.995165296199e+002 1.995530098096e+002 1.996424375678e+002 1.994040418722e+002 1.992206078735e+002 1.990000369475e+002 1.997404306251e+002 1.975292238655e+002 1.979073444208e+002 1.999080778212e+002 1.998692790875e+002 1.998146973566e+002 1.999077870541e+002 1.975288728856e+002 1.998692817571e+002 1.979072756195e+002 1.990000442055e+002 1.992206143725e+002 1.994007432029e+002 1.998146996719e+002 1.997404322721e+002 1.966765714206e+002 1.964693725530e+002 1.999517065679e+002 1.966291303113e+002 1.995357540985e+002 1.995343209737e+002 1.974755453528e+002 1.974748882701e+002 1.998754841726e+002 1.998754322272e+002 1.999501682514e+002 1.966628640178e+002 1.963655080966e+002 1.971111047785e+002 1.967236235032e+002 1.999526234742e+002 1.983692542249e+002 1.999526343353e+002 1.982536377344e+002 1.965758984563e+002 1.999379690337e+002 1.999380148486e+002 1.997512574259e+002 1.998227656260e+002 1.978598598051e+002 1.993806186909e+002 1.989662536505e+002 1.991921345212e+002 1.999119069476e+002 1.969156763965e+002 1.969261971172e+002 1.964526451698e+002 1.986676921992e+002 1.982562023983e+002 1.964568964448e+002 1.970246375269e+002 1.972921760708e+002 1.983424676297e+002 1.969698901622e+002 1.999431165335e+002 1.999431168776e+002 1.983077188559e+002 1.986366469642e+002 1.999405870178e+002 1.981766629630e+002 1.986441511339e+002 1.985952030339e+002 1.999019107320e+002 1.972007868079e+002 1.999296093373e+002 1.990171851861e+002 1.992345049967e+002 1.994158739009e+002 1.996357442987e+002 1.977461610863e+002 1.998405521064e+002 1.981092999225e+002 1.997752946710e+002 1.996772311337e+002 1.999356521382e+002 1.968142437184e+002 1.985394159140e+002 1.984335993259e+002 1.982118687463e+002 1.965795527627e+002 1.999526512950e+002 1.984853371904e+002 1.999526519283e+002 1.986154068978e+002 1.963131375974e+002 1.970790290301e+002 1.984626661833e+002 1.983439289065e+002 1.999502607600e+002 1.980214535521e+002 1.988514391668e+002 1.969212060645e+002 1.986732875417e+002 1.966816627680e+002 1.997243325638e+002 1.998026458000e+002 1.998605585560e+002 1.979739026300e+002 1.976000807567e+002 1.998662789667e+002 1.999175578321e+002 1.998105458079e+002 1.998837118417e+002 1.997348829408e+002 1.975541834712e+002 1.979308033075e+002 1.973989544463e+002 1.989182464097e+002 1.993473648190e+002 1.991514607042e+002 1.995073725376e+002 1.999201561825e+002 1.998876013783e+002 1.973596260194e+002 1.995768478921e+002 1.988883059067e+002 1.991260929896e+002 1.993259710534e+002 1.994900392824e+002 1.995617655207e+002 1.995997014418e+002 1.994625062571e+002 1.990853723520e+002 1.992921058628e+002 1.988405263785e+002 1.999252360355e+002 1.998953201867e+002 1.998514011307e+002 1.997074536840e+002 1.997900811168e+002 1.972792483665e+002 1.976697912322e+002 1.980395205496e+002 1.982516234283e+002 1.970062126116e+002 1.999500963837e+002 1.963225162169e+002 1.995595468072e+002 1.995094863389e+002 1.993495844023e+002 1.991545749855e+002 1.989218493150e+002 1.998827980128e+002 1.999169742101e+002 1.974071148061e+002 1.998669659735e+002 1.998113138962e+002 1.997357924530e+002 1.975483005907e+002 1.979269042274e+002 1.984544053180e+002 1.999433639994e+002 1.984181774322e+002 1.999447448897e+002 1.995973761780e+002 1.996012018116e+002 1.994672208246e+002 1.992977893233e+002 1.990923154967e+002 1.988486562013e+002 1.999247819598e+002 1.998946242183e+002 1.998499178543e+002 1.997880540648e+002 1.997092329852e+002 1.976806788116e+002 1.997062893201e+002 1.990896644612e+002 1.992885280073e+002 1.994654263066e+002 1.997892707197e+002 1.998508084537e+002 1.980428326522e+002 1.998953820821e+002 1.976740152173e+002 1.999252754477e+002 1.972776459351e+002 1.967328603268e+002 1.998908977322e+002 1.973259619079e+002 1.999223374941e+002 1.991102822603e+002 1.994793826310e+002 1.993142447487e+002 1.988697250491e+002 1.976287812387e+002 1.998568598851e+002 1.980006622377e+002 1.997975632411e+002 1.997173172819e+002 1.995865952794e+002 1.963590919683e+002 1.999526378924e+002 1.984076727176e+002 1.999466869850e+002 1.999492531195e+002 1.999492518509e+002 1.984079865606e+002 1.985296556907e+002 1.969038328843e+002 1.972872129981e+002 1.999392308045e+002 1.963332131656e+002 1.999431052895e+002 1.999430512490e+002 1.970605530353e+002 1.996767003571e+002 1.997668046696e+002 1.981465736017e+002 1.998342909161e+002 1.977878403325e+002 1.994175324230e+002 1.992347522604e+002 1.990196007639e+002 1.996354772486e+002 1.999320426789e+002 1.971487263322e+002 1.999059803254e+002 1.982101027505e+002 1.987078324773e+002 1.983774622895e+002 1.965629659800e+002 1.964351370464e+002 1.999521432093e+002 1.970495901317e+002 1.999521429931e+002 1.969732406349e+002 1.988539899134e+002 1.980228799571e+002 1.987540409017e+002 1.966147254933e+002 1.999331593084e+002 1.966280081371e+002 1.983174571244e+002 1.985752956336e+002 1.983699008255e+002 1.968863778759e+002 1.965640956589e+002 1.967464419896e+002 1.980972787205e+002 1.965620864091e+002 1.968082170803e+002 1.983982939367e+002 1.963756270136e+002 1.965015338431e+002 1.984949292327e+002 1.982906102698e+002 1.985843483123e+002 1.983372223978e+002 1.999482434051e+002 1.963592692184e+002 1.971856795125e+002 1.996128863922e+002 1.996415506246e+002 1.999330787336e+002 1.999076713487e+002 1.999280922094e+002 1.998995052397e+002 1.998344987411e+002 1.997670846576e+002 1.977866678651e+002 1.996969690142e+002 1.996719148842e+002 1.988044599461e+002 1.987487022077e+002 1.990549240832e+002 1.990024850057e+002 1.992226675665e+002 1.992666932467e+002 1.994416826019e+002 1.994056646387e+002 1.964297400956e+002 1.999513382741e+002 1.999513253700e+002 1.999520873875e+002 1.999520877082e+002 1.966975382930e+002 1.999518821520e+002 1.994944737883e+002 1.993314367719e+002 1.991326717750e+002 1.988960382123e+002 1.995729955661e+002 1.996250347723e+002 1.996867258395e+002 1.997742493637e+002 1.981146618304e+002 1.998397832435e+002 1.977514222316e+002 1.998872097563e+002 1.973635528294e+002 1.999198988109e+002 1.999198919407e+002 1.998871990165e+002 1.999300700220e+002 1.998397334856e+002 1.997741817360e+0