<?xml version="1.0"?>
<VTKFile type="UnstructuredGrid" version="0.1" byte_order="LittleEndian">
  <UnstructuredGrid>
    <Piece NumberOfPoints="2604" NumberOfCells="4910">
      <Points>
        <DataArray type="Float64" NumberOfComponents="3" format="ascii">
          0.000000000000e+000 0.000000000000e+000 0.000000000000e+000
          2.000000000000e+002 0.000000000000e+000 0.000000000000e+000
          2.000000000000e+002 2.000000000000e+001 0.000000000000e+000
          0.000000000000e+000 2.000000000000e+001 0.000000000000e+000
          1.492537313427e+000 0.000000000000e+000 0.000000000000e+000
          2.985074626854e+000 0.000000000000e+000 0.000000000000e+000
          4.477611940281e+000 0.000000000000e+000 0.000000000000e+000
          5.970149253708e+000 0.000000000000e+000 0.000000000000e+000
          7.462686567135e+000 0.000000000000e+000 0.000000000000e+000
          8.955223880561e+000 0.000000000000e+000 0.000000000000e+000
          1.044776119399e+001 0.000000000000e+000 0.000000000000e+000
          1.194029850741e+001 0.000000000000e+000 0.000000000000e+000
          1.343283582084e+001 0.000000000000e+000 0.000000000000e+000
          1.492537313427e+001 0.000000000000e+000 0.000000000000e+000
          1.641791044770e+001 0.000000000000e+000 0.000000000000e+000
          1.791044776112e+001 0.000000000000e+000 0.000000000000e+000
          1.940298507455e+001 0.000000000000e+000 0.000000000000e+000
          2.089552238798e+001 0.000000000000e+000 0.000000000000e+000
          2.238805970141e+001 0.000000000000e+000 0.000000000000e+000
          2.388059701484e+001 0.000000000000e+000 0.000000000000e+000
          2.537313432826e+001 0.000000000000e+000 0.000000000000e+000
          2.686567164169e+001 0.000000000000e+000 0.000000000000e+000
          2.835820895511e+001 0.000000000000e+000 0.000000000000e+000
          2.985074626854e+001 0.000000000000e+000 0.000000000000e+000
          3.134328358196e+001 0.000000000000e+000 0.000000000000e+000
          3.283582089539e+001 0.000000000000e+000 0.000000000000e+000
          3.432835820881e+001 0.000000000000e+000 0.000000000000e+000
          3.582089552224e+001 0.000000000000e+000 0.000000000000e+000
          3.731343283566e+001 0.000000000000e+000 0.000000000000e+000
          3.880597014909e+001 0.000000000000e+000 0.000000000000e+000
          4.029850746251e+001 0.000000000000e+000 0.000000000000e+000
          4.179104477594e+001 0.000000000000e+000 0.000000000000e+000
          4.328358208936e+001 0.000000000000e+000 0.000000000000e+000
          4.477611940279e+001 0.000000000000e+000 0.000000000000e+000
          4.626865671621e+001 0.000000000000e+000 0.000000000000e+000
          4.776119402964e+001 0.000000000000e+000 0.000000000000e+000
          4.925373134306e+001 0.000000000000e+000 0.000000000000e+000
          5.074626865649e+001 0.000000000000e+000 0.000000000000e+000
          5.223880596991e+001 0.000000000000e+000 0.000000000000e+000
          5.373134328334e+001 0.000000000000e+000 0.000000000000e+000
          5.522388059676e+001 0.000000000000e+000 0.000000000000e+000
          5.671641791019e+001 0.000000000000e+000 0.000000000000e+000
          5.820895522361e+001 0.000000000000e+000 0.000000000000e+000
          5.970149253704e+001 0.000000000000e+000 0.000000000000e+000
          6.119402985046e+001 0.000000000000e+000 0.000000000000e+000
          6.268656716389e+001 0.000000000000e+000 0.000000000000e+000
          6.417910447732e+001 0.000000000000e+000 0.000000000000e+000
          6.567164179075e+001 0.000000000000e+000 0.000000000000e+000
          6.716417910418e+001 0.000000000000e+000 0.000000000000e+000
          6.865671641761e+001 0.000000000000e+000 0.000000000000e+000
          7.014925373104e+001 0.000000000000e+000 0.000000000000e+000
          7.164179104447e+001 0.000000000000e+000 0.000000000000e+000
          7.313432835790e+001 0.000000000000e+000 0.000000000000e+000
          7.462686567133e+001 0.000000000000e+000 0.000000000000e+000
          7.611940298476e+001 0.000000000000e+000 0.000000000000e+000
          7.761194029819e+001 0.000000000000e+000 0.000000000000e+000
          7.910447761162e+001 0.000000000000e+000 0.000000000000e+000
          8.059701492505e+001 0.000000000000e+000 0.000000000000e+000
          8.208955223848e+001 0.000000000000e+000 0.000000000000e+000
          8.358208955191e+001 0.000000000000e+000 0.000000000000e+000
          8.507462686534e+001 0.000000000000e+000 0.000000000000e+000
          8.656716417877e+001 0.000000000000e+000 0.000000000000e+000
          8.805970149220e+001 0.000000000000e+000 0.000000000000e+000
          8.955223880563e+001 0.000000000000e+000 0.000000000000e+000
          9.104477611907e+001 0.000000000000e+000 0.000000000000e+000
          9.253731343250e+001 0.000000000000e+000 0.000000000000e+000
          9.402985074593e+001 0.000000000000e+000 0.000000000000e+000
          9.552238805936e+001 0.000000000000e+000 0.000000000000e+000
          9.701492537279e+001 0.000000000000e+000 0.000000000000e+000
          9.850746268622e+001 0.000000000000e+000 0.000000000000e+000
          9.999999999965e+001 0.000000000000e+000 0.000000000000e+000
          1.014925373131e+002 0.000000000000e+000 0.000000000000e+000
          1.029850746265e+002 0.000000000000e+000 0.000000000000e+000
          1.044776119399e+002 0.000000000000e+000 0.000000000000e+000
          1.059701492534e+002 0.000000000000e+000 0.000000000000e+000
          1.074626865668e+002 0.000000000000e+000 0.000000000000e+000
          1.089552238802e+002 0.000000000000e+000 0.000000000000e+000
          1.104477611937e+002 0.000000000000e+000 0.000000000000e+000
          1.119402985071e+002 0.000000000000e+000 0.000000000000e+000
          1.134328358205e+002 0.000000000000e+000 0.000000000000e+000
          1.149253731340e+002 0.000000000000e+000 0.000000000000e+000
          1.164179104474e+002 0.000000000000e+000 0.000000000000e+000
          1.179104477608e+002 0.000000000000e+000 0.000000000000e+000
          1.194029850742e+002 0.000000000000e+000 0.000000000000e+000
          1.208955223877e+002 0.000000000000e+000 0.000000000000e+000
          1.223880597011e+002 0.000000000000e+000 0.000000000000e+000
          1.238805970145e+002 0.000000000000e+000 0.000000000000e+000
          1.253731343280e+002 0.000000000000e+000 0.000000000000e+000
          1.268656716414e+002 0.000000000000e+000 0.000000000000e+000
          1.283582089548e+002 0.000000000000e+000 0.000000000000e+000
          1.298507462683e+002 0.000000000000e+000 0.000000000000e+000
          1.313432835817e+002 0.000000000000e+000 0.000000000000e+000
          1.328358208952e+002 0.000000000000e+000 0.000000000000e+000
          1.343283582086e+002 0.000000000000e+000 0.000000000000e+000
          1.358208955220e+002 0.000000000000e+000 0.000000000000e+000
          1.373134328355e+002 0.000000000000e+000 0.000000000000e+000
          1.388059701489e+002 0.000000000000e+000 0.000000000000e+000
          1.402985074624e+002 0.000000000000e+000 0.000000000000e+000
          1.417910447758e+002 0.000000000000e+000 0.000000000000e+000
          1.432835820892e+002 0.000000000000e+000 0.000000000000e+000
          1.447761194027e+002 0.000000000000e+000 0.000000000000e+000
          1.462686567161e+002 0.000000000000e+000 0.000000000000e+000
          1.477611940296e+002 0.000000000000e+000 0.000000000000e+000
          1.492537313430e+002 0.000000000000e+000 0.000000000000e+000
          1.507462686564e+002 0.000000000000e+000 0.000000000000e+000
          1.522388059699e+002 0.000000000000e+000 0.000000000000e+000
          1.537313432833e+002 0.000000000000e+000 0.000000000000e+000
          1.552238805968e+002 0.000000000000e+000 0.000000000000e+000
          1.567164179102e+002 0.000000000000e+000 0.000000000000e+000
          1.582089552237e+002 0.000000000000e+000 0.000000000000e+000
          1.597014925371e+002 0.000000000000e+000 0.000000000000e+000
          1.611940298505e+002 0.000000000000e+000 0.000000000000e+000
          1.626865671640e+002 0.000000000000e+000 0.000000000000e+000
          1.641791044774e+002 0.000000000000e+000 0.000000000000e+000
          1.656716417909e+002 0.000000000000e+000 0.000000000000e+000
          1.671641791043e+002 0.000000000000e+000 0.000000000000e+000
          1.686567164177e+002 0.000000000000e+000 0.000000000000e+000
          1.701492537312e+002 0.000000000000e+000 0.000000000000e+000
          1.716417910446e+002 0.000000000000e+000 0.000000000000e+000
          1.731343283581e+002 0.000000000000e+000 0.000000000000e+000
          1.746268656715e+002 0.000000000000e+000 0.000000000000e+000
          1.761194029849e+002 0.000000000000e+000 0.000000000000e+000
          1.776119402984e+002 0.000000000000e+000 0.000000000000e+000
          1.791044776118e+002 0.000000000000e+000 0.000000000000e+000
          1.805970149253e+002 0.000000000000e+000 0.000000000000e+000
          1.820895522387e+002 0.000000000000e+000 0.000000000000e+000
          1.835820895521e+002 0.000000000000e+000 0.000000000000e+000
          1.850746268656e+002 0.000000000000e+000 0.000000000000e+000
          1.865671641790e+002 0.000000000000e+000 0.000000000000e+000
          1.880597014925e+002 0.000000000000e+000 0.000000000000e+000
          1.895522388059e+002 0.000000000000e+000 0.000000000000e+000
          1.910447761194e+002 0.000000000000e+000 0.000000000000e+000
          1.925373134328e+002 0.000000000000e+000 0.000000000000e+000
          1.940298507462e+002 0.000000000000e+000 0.000000000000e+000
          1.955223880597e+002 0.000000000000e+000 0.000000000000e+000
          1.970149253731e+002 0.000000000000e+000 0.000000000000e+000
          1.985074626866e+002 0.000000000000e+000 0.000000000000e+000
          2.000000000000e+002 1.428571428570e+000 0.000000000000e+000
          2.000000000000e+002 2.857142857140e+000 0.000000000000e+000
[...]
      <PointData Scalars="MEAN_PRESSURE">
        <DataArray type="Float64" Name="MEAN_PRESSURE" format="ascii">
          2.000000000000e+002 1.992578502455e+002 1.992578487001e+002 2.000000000000e+002 1.994708941207e+002 1.984239933435e+002 1.977279806072e+002 1.972536297829e+002 1.969502323473e+002 1.967735525390e+002 1.966788684943e+002 1.966413080518e+002 1.966384249130e+002 1.966560605342e+002 1.966844112648e+002 1.967180542873e+002 1.967536643535e+002 1.967895762850e+002 1.968250820035e+002 1.968599611160e+002 1.968942538206e+002 1.969280316454e+002 1.969614578947e+002 1.969946374682e+002 1.970276457725e+002 1.970605300590e+002 1.970933241451e+002 1.971260429522e+002 1.971586898169e+002 1.971912664035e+002 1.972237689320e+002 1.972561938734e+002 1.972885320787e+002 1.973207786409e+002 1.973529265156e+002 1.973849677813e+002 1.974168983060e+002 1.974487083871e+002 1.974803940060e+002 1.975119503634e+002 1.975433672514e+002 1.975746364411e+002 1.976057586941e+002 1.976367237997e+002 1.976675284160e+002 1.976981653575e+002 1.977286324164e+002 1.977589139205e+002 1.977890185552e+002 1.978189293000e+002 1.978486433194e+002 1.978781576461e+002 1.979074710920e+002 1.979365621663e+002 1.979654424078e+002 1.979941018125e+002 1.980225379187e+002 1.980507374041e+002 1.980786990196e+002 1.981064310415e+002 1.981339044812e+002 1.981611286763e+002 1.981880978001e+002 1.982148122760e+002 1.982412603632e+002 1.982674399134e+002 1.982933475907e+002 1.983189762978e+002 1.983443270417e+002 1.983693892546e+002 1.983941685575e+002 1.984186491791e+002 1.984428370763e+002 1.984667233424e+002 1.984903043083e+002 1.985135810877e+002 1.985365432835e+002 1.985591971226e+002 1.985815306741e+002 1.986035449079e+002 1.986252305858e+002 1.986465949128e+002 1.986676258955e+002 1.986883272393e+002 1.987086907520e+002 1.987287152875e+002 1.987484004804e+002 1.987677415671e+002 1.987867361412e+002 1.988053824634e+002 1.988236780709e+002 1.988416212734e+002 1.988592099782e+002 1.988764393415e+002 1.988933055886e+002 1.989098147162e+002 1.989259560323e+002 1.989417322320e+002 1.989571419532e+002 1.989721846465e+002 1.989868547795e+002 1.990011488443e+002 1.990150733773e+002 1.990286176985e+002 1.990417851027e+002 1.990545747219e+002 1.990669864945e+002 1.990790151798e+002 1.990906576111e+002 1.991019209117e+002 1.991127944613e+002 1.991232818174e+002 1.991333833704e+002 1.991431002913e+002 1.991524250696e+002 1.991613558890e+002 1.991699009668e+002 1.991780494723e+002 1.991858053123e+002 1.991931687772e+002 1.992001417226e+002 1.992067195279e+002 1.992128983807e+002 1.992186810012e+002 1.992240663169e+002 1.992290508603e+002 1.992336424273e+002 1.992378403357e+002 1.992416335192e+002 1.992450364087e+002 1.992480456863e+002 1.992506353008e+002 1.992528319390e+002 1.992546308393e+002 1.992560524588e+002 1.992570129917e+002 1.992576312315e+002 1.992578288501e+002 1.992578089274e+002 1.992578521944e+002 1.992578435129e+002 1.992578392583e+002 1.992578314509e+002 1.992578263275e+002 1.992578298799e+002 1.992578302897e+002 1.992578205187e+002 1.992578475218e+002 1.992578064739e+002 1.992578271441e+002 1.992576298394e+002 1.992570118861e+002 1.992560515020e+002 1.992546298952e+002 1.992528312103e+002 1.992506358400e+002 1.992480474534e+002 1.992450384265e+002 1.992416354084e+002 1.992378420940e+002 1.992336428536e+002 1.992290516025e+002 1.992240660833e+002 1.992186797219e+002 1.992128974321e+002 1.992067176246e+002 1.992001393480e+002 1.991931738762e+002 1.991858094972e+002 1.991780505352e+002 1.991699007108e+002 1.991613571476e+002 1.991524217505e+002 1.991430997385e+002 1.991333862171e+002 1.991232856568e+002 1.991127944379e+002 1.991019197211e+002 1.990906553760e+002 1.990790138696e+002 1.990669847176e+002 1.990545754115e+002 1.990417864050e+002 1.990286151050e+002 1.990150716968e+002 1.990011471911e+002 1.989868543257e+002 1.989721836170e+002 1.989571429380e+002 1.989417333302e+002 1.989259532163e+002 1.989098131050e+002 1.988933044850e+002 1.988764395094e+002 1.988592097250e+002 1.988416191130e+002 1.988236790290e+002 1.988053831377e+002 1.987867364660e+002 1.987677415724e+002 1.987484015134e+002 1.987287188672e+002 1.987086936664e+002 1.986883270462e+002 1.986676293090e+002 1.986465951064e+002 1.986252313301e+002 1.986035418326e+002 1.985815318817e+002 1.985591968332e+002 1.985365467474e+002 1.985135824886e+002 1.984903053944e+002 1.984667213800e+002 1.984428350312e+002 1.984186503589e+002 1.983941674160e+002 1.983693915389e+002 1.983443258376e+002 1.983189762074e+002 1.982933453614e+002 1.982674385914e+002 1.982412606734e+002 1.982148126811e+002 1.981881004273e+002 1.981611276708e+002 1.981339006557e+002 1.981064227345e+002 1.980786994395e+002 1.980507368787e+002 1.980225365237e+002 1.979941042340e+002 1.979654441349e+002 1.979365630573e+002 1.979074647126e+002 1.978781558426e+002 1.978486413056e+002 1.978189219798e+002 1.977890129460e+002 1.977589130285e+002 1.977286263902e+002 1.976981631055e+002 1.976675218344e+002 1.976367134509e+002 1.976057451186e+002 1.975746186347e+002 1.975433412882e+002 1.975119197088e+002 1.974803582394e+002 1.974486620935e+002 1.974168398786e+002 1.973848941505e+002 1.973528322137e+002 1.973206597606e+002 1.972883824592e+002 1.972560041625e+002 1.972235293856e+002 1.971909634748e+002 1.971583058014e+002 1.971255568792e+002 1.970927112173e+002 1.970597563992e+002 1.970266662266e+002 1.969933989524e+002 1.969598885507e+002 1.969260376251e+002 1.968917191200e+002 1.968567708162e+002 1.968210719100e+002 1.967845192907e+002 1.967473303665e+002 1.967101558513e+002 1.966746194521e+002 1.966437707805e+002 1.966238145829e+002 1.966242046585e+002 1.966598102039e+002 1.967493624123e+002 1.969281175366e+002 1.972338217590e+002 1.977062182667e+002 1.984097236101e+002 1.994529926475e+002 2.000000000000e+002 2.000000000000e+002 2.000000000000e+002 2.000000000000e+002 2.000000000000e+002 2.000000000000e+002 2.000000000000e+002 2.000000000000e+002 2.000000000000e+002 2.000000000000e+002 2.000000000000e+002 2.000000000000e+002 2.000000000000e+002 1.992488349948e+002 1.966927373279e+002 1.992215932112e+002 1.991741785136e+002 1.991067184860e+002 1.990210380326e+002 1.989169127919e+002 1.969438768898e+002 1.987960954961e+002 1.971768486996e+002 1.974029109301e+002 1.976251077149e+002 1.979485655099e+002 1.981475401545e+002 1.983316793724e+002 1.985019740992e+002 1.986571432729e+002 1.967353985491e+002 1.977890170262e+002 1.987287108061e+002 1.987277985886e+002 1.985815312395e+002 1.984186496137e+002 1.982412612799e+002 1.980507385313e+002 1.992011671120e+002 1.991445392043e+002 1.990684097862e+002 1.980507339879e+002 1.982365358831e+002 1.984206124957e+002 1.985775459299e+002 1.989739197561e+002 1.988592030435e+002 1.970586998955e+002 1.972846926856e+002 1.975154879980e+002 1.988600171907e+002 1.989723270458e+002 1.990671024017e+002 1.991430901763e+002 1.992001317660e+002 1.975116033928e+002 1.972880868569e+002 1.970599284192e+002 1.992374209653e+002 1.992371689788e+002 1.977242819174e+002 1.978565580304e+002 1.966468235668e+002 1.968266946129e+002 1.992546900621e+002 1.972458474578e+002 1.992547398868e+002 1.972448581474e+002 1.966387204293e+002 1.968547951789e+002 1.976911972232e+002 1.978823515842e+002 1.992214281518e+002 1.986571461085e+002 1.991740175402e+002 1.985019816698e+002 1.983316868782e+002 1.981475460125e+002 1.979571603491e+002 1.987959154874e+002 1.991075904843e+002 1.990230906424e+002 1.989193626499e+002 1.971743334810e+002 1.973980909699e+002 1.987962760491e+002 1.989179230445e+002 1.990218856000e+002 1.991073990146e+002 1.981474975067e+002 1.983316403140e+002 1.985019362003e+002 1.991740175966e+002 1.986575253225e+002 1.992214215421e+002 1.976212524211e+002 1.974008890334e+002 1.971746930784e+002 1.969432570842e+002 1.992477015089e+002 1.992478888223e+002 1.966560276117e+002 1.969619204164e+002 1.979713053152e+002 1.975974891710e+002 1.992561887187e+002 1.977837637548e+002 1.967391004998e+002 1.967028089764e+002 1.967330659332e+002 1.977717828120e+002 1.977085682860e+002 1.978691611234e+002 1.966380293915e+002 1.968320796512e+002 1.977896940095e+002 1.992404797020e+002 1.990778509876e+002 1.991337324264e+002 1.989854335649e+002 1.991934160297e+002 1.988747527596e+002 1.985998508962e+002 1.982630453208e+002 1.980740053454e+002 1.984404741993e+002 1.970918004636e+002 1.974834554460e+002 1.972592596464e+002 1.987106397765e+002 1.977890145612e+002 1.992568268299e+002 1.982735318154e+002 1.992568268024e+002 1.982455385975e+002 1.986113738473e+002 1.984514548240e+002 1.982767837029e+002 1.980886957192e+002 1.988351938589e+002 1.987005813727e+002 1.987553877047e+002 1.989516295259e+002 1.975546087241e+002 1.990500060711e+002 1.973322527515e+002 1.991297802265e+002 1.971045781264e+002 1.991905520027e+002 1.991902716335e+002 1.992094264380e+002 1.991293903898e+002 1.991558532110e+002 1.990488190629e+002 1.990827851363e+002 1.989501966414e+002 1.989914790396e+002 1.971095050812e+002 1.988817816913e+002 1.988351433971e+002 1.973353679508e+002 1.972457524718e+002 1.980888397668e+002 1.982778400479e+002 1.984533728517e+002 1.982061757200e+002 1.983860571064e+002 1.986104026204e+002 1.985518807002e+002 1.974781141148e+002 1.987554390474e+002 1.987044235684e+002 1.992089842703e+002 1.970147933967e+002 1.991542916115e+002 1.972491795932e+002 1.990814931934e+002 1.974736895897e+002 1.989898906400e+002 1.980077333435e+002 1.982025447224e+002 1.983827950919e+002 1.985484003008e+002 1.988800167276e+002 1.967191495732e+002 1.992317607925e+002 1.992315565529e+002 1.978879571151e+002 1.976846660184e+002 1.968730585903e+002 1.987537138417e+002 1.983867834755e+002 1.985529258246e+002 1.982074112969e+002 1.980083115297e+002 1.970173361748e+002 1.973295457165e+002 1.992085946009e+002 1.975527138561e+002 1.991549001972e+002 1.990511018922e+002 1.988367391667e+002 1.989529512224e+002 1.970268396059e+002 1.992417722399e+002 1.992417715140e+002 1.978359332238e+002 1.966240293837e+002 1.992321937055e+002 1.987694712108e+002 1.988223178335e+002 1.989405386929e+002 1.975751866796e+002 1.990407916439e+002 1.973553173936e+002 1.981860950481e+002 1.983675273119e+002 1.985348418577e+002 1.992130120535e+002 1.969931852318e+002 1.991620235000e+002 1.968082095188e+002 1.979965227079e+002 1.992527395704e+002 1.992524938591e+002 1.992284623994e+002 1.980261514236e+002 1.975394699830e+002 1.979109019332e+002 1.976629702708e+002 1.969195671586e+002 1.968978356785e+002 1.966234067218e+002 1.966672609845e+002 1.968985402120e+002 1.986242111914e+002 1.984659720624e+002 1.982925292270e+002 1.981055492176e+002 1.991238178794e+002 1.971240228735e+002 1.991862144724e+002 1.986874825577e+002 1.988928534947e+002 1.991228712294e+002 1.990017536161e+002 1.991855106671e+002 1.990911458973e+002 1.986267778169e+002 1.984659061219e+002 1.982944197936e+002 1.981075737310e+002 1.971272708597e+002 1.974495982903e+002 1.972223406212e+002 1.972222396755e+002 1.990911381506e+002 1.974473455394e+002 1.990017351150e+002 1.988939986913e+002 1.986874665279e+002 1.992569287420e+002 1.992569879080e+002 1.983644333066e+002 1.982600308564e+002 1.992531891429e+002 1.969743560360e+002 1.992450084393e+002 1.992455644082e+002 1.967810318543e+002 1.992512116093e+002 1.966490929455e+002 1.970128643882e+002 1.976551113516e+002 1.979198083348e+002 1.969175119775e+002 1.966368167105e+002 1.976341891066e+002 1.967920484941e+002 1.967859645957e+002 1.979401363036e+002 1.966945068610e+002 1.977113281461e+002 1.978326934729e+002 1.966710796057e+002 1.973454372395e+002 1.988288746728e+002 1.989453567371e+002 1.990447991737e+002 1.991603709658e+002 1.992122768861e+002 1.987622384314e+002 1.980001258599e+002 1.981935893722e+002 1.983744859628e+002 1.985412080693e+002 1.977436989616e+002 1.967921520568e+002 1.978388734618e+002 1.977354491354e+002 1.992296704598e+002 1.992504635939e+002 1.970024929113e+002 1.975604894883e+002 1.968278057885e+002 1.971362853283e+002 1.992542522440e+002 1.966851028846e+002 1.986455891404e+002 1.984891939914e+002 1.983177701966e+002 1.981326081364e+002 1.988049277194e+002 1.987871845039e+002 1.986689275541e+002 1.989266934420e+002 1.990292326961e+002 1.976042847802e+002 1.991132841010e+002 1.973833902546e+002 1.991784107964e+002 1.971567824866e+002 1.992185418010e+002 1.991781330277e+002 1.991134565865e+002 1.990296439826e+002 1.989271838699e+002 1.971566236504e+002 1.973824653893e+002 1.981336068288e+002 1.983175690102e+002 1.984890094688e+002 1.992184093789e+002 1.969615222598e+002 1.979681806078e+002 1.992218307382e+002 1.992465305365e+002 1.992465331864e+002 1.969775269044e+002 1.968895976083e+002 1.966359816373e+002 1.978216622946e+002 1.992038341250e+002 1.991483169273e+002 1.990601409381e+002 1.989638788279e+002 1.988479345495e+002 1.970417599059e+002 1.973063573810e+002 1.975293820681e+002 1.985698890835e+002 1.982274610844e+002 1.980362545749e+002 1.984029382741e+002 1.987414161395e+002 1.992351261940e+002 1.992551731153e+002 1.992551743280e+002 1.991726225952e+002 1.990240497958e+002 1.989205063060e+002 1.973958142986e+002 1.981521705367e+002 1.983359919313e+002 1.985059326756e+002 1.973907261087e+002 1.977570102283e+002 1.987995740548e+002 1.987927146219e+002 1.979564980083e+002 1.992573881946e+002 1.988778853783e+002 1.975825849819e+002 1.979875757377e+002 1.988585550817e+002 1.989716243421e+002 1.990665239881e+002 1.992001343219e+002 1.991431146495e+002 1.975130881020e+002 1.972895868316e+002 1.970597789629e+002 1.984186481629e+002 1.985815302317e+002 1.980507342292e+002 1.982412587007e+002 1.992001301857e+002 1.991430937131e+002 1.982412528866e+002 1.984190656421e+002 1.990669754304e+002 1.985817285961e+002 1.989721748130e+002 1.988593646180e+002 1.972885249417e+002 1.987294494229e+002 1.987287098853e+002 1.967699819307e+002 1.976635372038e+002 1.967575353453e+002 1.980109445518e+002 1.977965524933e+002 1.992427846051e+002 1.992424405205e+002 1.978774456105e+002 1.978940989948e+002 1.978103532396e+002 1.988133232970e+002 1.986374111956e+002 1.986766041876e+002 1.987785778887e+002 1.985235304698e+002 1.983551798346e+002 1.981728012550e+002 1.989027300821e+002 1.972052982572e+002 1.974306437240e+002 1.991668119704e+002 1.990971015937e+002 1.990091050220e+002 1.991662591233e+002 1.972050403176e+002 1.990971049083e+002 1.974305935493e+002 1.981728034885e+002 1.983551821084e+002 1.985203351315e+002 1.990091073060e+002 1.989027312444e+002 1.975157282640e+002 1.966217408388e+002 1.992554135100e+002 1.974715762636e+002 1.986579153749e+002 1.986563764968e+002 1.971739674206e+002 1.971735597729e+002 1.991077936267e+002 1.991077024743e+002 1.992520532305e+002 1.966932700340e+002 1.967654311243e+002 1.969636336818e+002 1.967300145857e+002 1.992574257753e+002 1.989739031114e+002 1.992574496116e+002 1.989012695849e+002 1.966502091091e+002 1.992260819564e+002 1.992261775178e+002 1.989174704073e+002 1.990215056023e+002 1.974018014472e+002 1.985009582240e+002 1.981463487826e+002 1.983305700807e+002 1.991740994271e+002 1.968487724456e+002 1.968555008017e+002 1.966314569588e+002 1.979254819169e+002 1.976487719820e+002 1.966392061429e+002 1.969131770914e+002 1.970679096775e+002 1.977047499221e+002 1.968810409410e+002 1.992368980831e+002 1.992368986694e+002 1.976820846129e+002 1.979036488131e+002 1.992315583265e+002 1.975979447907e+002 1.979089159924e+002 1.978747713525e+002 1.991552436885e+002 1.970151752717e+002 1.992089246463e+002 1.981863647817e+002 1.983673252364e+002 1.985350706280e+002 1.987706198370e+002 1.973334290709e+002 1.990495446956e+002 1.975554481822e+002 1.989510731987e+002 1.988209434115e+002 1.992212779669e+002 1.967869692729e+002 1.978363775288e+002 1.977649485414e+002 1.976203559071e+002 1.966500568193e+002 1.992574868948e+002 1.990476901449e+002 1.992574883441e+002 1.991283687514e+002 1.968430946013e+002 1.969449654019e+002 1.977843981284e+002 1.977057010258e+002 1.992522548253e+002 1.975007030331e+002 1.980588621740e+002 1.968523301420e+002 1.979294464832e+002 1.967056555192e+002 1.988812475405e+002 1.989909345778e+002 1.990823447581e+002 1.974713756876e+002 1.972468276028e+002 1.990919930275e+002 1.991850067192e+002 1.990028009282e+002 1.991222175570e+002 1.988952677339e+002 1.972199033957e+002 1.974449590629e+002 1.971295198598e+002 1.981093307561e+002 1.984695097713e+002 1.982960062732e+002 1.986277632103e+002 1.991900887555e+002 1.991291471297e+002 1.971067035417e+002 1.987029312130e+002 1.980865829349e+002 1.982748075068e+002 1.984496314180e+002 1.986097153015e+002 1.986862047351e+002 1.987287130918e+002 1.985815182434e+002 1.982412507734e+002 1.984186469922e+002 1.980507299754e+002 1.992001374449e+002 1.991430951832e+002 1.990671531922e+002 1.988592061936e+002 1.989723900451e+002 1.970604127723e+002 1.972880039706e+002 1.975118981298e+002 1.976458375335e+002 1.969027558245e+002 1.992518968766e+002 1.968391923907e+002 1.986837686819e+002 1.986299851437e+002 1.984715899967e+002 1.982986348701e+002 1.981120905977e+002 1.991206035247e+002 1.991838728397e+002 1.971342060551e+002 1.990931659602e+002 1.990039676604e+002 1.988964951568e+002 1.972164469598e+002 1.974425780239e+002 1.977788612412e+002 1.992374240236e+002 1.977546860992e+002 1.992403633868e+002 1.987260676121e+002 1.987304250737e+002 1.985863004304e+002 1.984238099161e+002 1.982469270578e+002 1.980567881614e+002 1.991992329439e+002 1.991418260985e+002 1.990647196202e+002 1.989694335732e+002 1.988615098681e+002 1.972944644415e+002 1.988577042631e+002 1.982447499558e+002 1.984154114458e+002 1.985844695804e+002 1.989712086188e+002 1.990661810122e+002 1.975139615833e+002 1.991432115598e+002 1.972904939649e+002 1.992002178881e+002 1.970594063294e+002 1.967364300173e+002 1.991350684914e+002 1.970872877505e+002 1.991943837461e+002 1.982617012231e+002 1.985987236822e+002 1.984388215886e+002 1.980725685918e+002 1.972637509406e+002 1.990761755874e+002 1.974878617288e+002 1.989833886133e+002 1.988720284923e+002 1.987138607848e+002 1.967150350843e+002 1.992574574479e+002 1.989888952559e+002 1.992445217265e+002 1.992500638662e+002 1.992500612232e+002 1.977479178193e+002 1.978297191969e+002 1.968414451144e+002 1.970650405847e+002 1.992287157036e+002 1.967224717571e+002 1.992368751159e+002 1.992367604270e+002 1.969344922121e+002 1.988202833294e+002 1.989390523751e+002 1.975788972587e+002 1.990395539528e+002 1.973583841094e+002 1.985367049146e+002 1.983675519014e+002 1.981882910758e+002 1.987703081167e+002 1.992138673272e+002 1.969852761818e+002 1.991628510578e+002 1.976192141674e+002 1.979539862512e+002 1.977277218423e+002 1.966474514484e+002 1.966523873441e+002 1.992563708123e+002 1.979314300088e+002 1.992563703825e+002 1.978763715953e+002 1.980607589660e+002 1.975015868463e+002 1.979872297574e+002 1.966686674218e+002 1.992161502916e+002 1.974614475652e+002 1.976884248232e+002 1.978610059206e+002 1.977227467978e+002 1.968309083864e+002 1.966426302593e+002 1.967445992858e+002 1.975479107458e+002 1.966415660695e+002 1.967834695946e+002 1.977414969191e+002 1.966584097126e+002 1.966315931667e+002 1.978061357284e+002 1.976709940117e+002 1.978672485851e+002 1.977013099603e+002 1.992478764713e+002 1.969559706109e+002 1.970066530242e+002 1.987438520848e+002 1.987775163647e+002 1.992159843174e+002 1.991660396046e+002 1.992058588745e+002 1.991507778241e+002 1.990398740322e+002 1.989394338295e+002 1.973576790555e+002 1.988457577506e+002 1.988143538278e+002 1.980240440594e+002 1.979833776491e+002 1.982165499728e+002 1.981747291763e+002 1.983569717257e+002 1.983958104235e+002 1.985605835001e+002 1.985251044150e+002 1.972129078230e+002 1.992546069251e+002 1.992545789131e+002 1.992562482420e+002 1.992562489995e+002 1.975785196407e+002 1.992557981472e+002 1.986142945618e+002 1.984546697485e+002 1.982802679315e+002 1.980924222442e+002 1.986986261930e+002 1.987579976992e+002 1.988328048202e+002 1.989495774352e+002 1.975588077040e+002 1.990483056629e+002 1.973365641076e+002 1.991284422232e+002 1.971089515960e+002 1.991895811083e+002 1.991895668639e+002 1.991284215327e+002 1.992098560267e+002 1.990482263748e+002 1.989494822301e+0