<?xml version="1.0"?>
<VTKFile type="UnstructuredGrid" version="0.1" byte_order="LittleEndian">
  <UnstructuredGrid>
    <Piece NumberOfPoints="2604" NumberOfCells="4910">
      <Points>
        <DataArray type="Float64" NumberOfComponents="3" format="ascii">
          0.000000000000e+000 0.000000000000e+000 0.000000000000e+000
          2.000000000000e+002 0.000000000000e+000 0.000000000000e+000
          2.000000000000e+002 2.000000000000e+001 0.000000000000e+000
          0.000000000000e+000 2.000000000000e+001 0.000000000000e+000
          1.492537313427e+000 0.000000000000e+000 0.000000000000e+000
          2.985074626854e+000 0.000000000000e+000 0.000000000000e+000
          4.477611940281e+000 0.000000000000e+000 0.000000000000e+000
          5.970149253708e+000 0.000000000000e+000 0.000000000000e+000
          7.462686567135e+000 0.000000000000e+000 0.000000000000e+000
          8.955223880561e+000 0.000000000000e+000 0.000000000000e+000
          1.044776119399e+001 0.000000000000e+000 0.000000000000e+000
          1.194029850741e+001 0.000000000000e+000 0.000000000000e+000
          1.343283582084e+001 0.000000000000e+000 0.000000000000e+000
          1.492537313427e+001 0.000000000000e+000 0.000000000000e+000
          1.641791044770e+001 0.000000000000e+000 0.000000000000e+000
          1.791044776112e+001 0.000000000000e+000 0.000000000000e+000
          1.940298507455e+001 0.000000000000e+000 0.000000000000e+000
          2.089552238798e+001 0.000000000000e+000 0.000000000000e+000
          2.238805970141e+001 0.000000000000e+000 0.000000000000e+000
          2.388059701484e+001 0.000000000000e+000 0.000000000000e+000
          2.537313432826e+001 0.000000000000e+000 0.000000000000e+000
          2.686567164169e+001 0.000000000000e+000 0.000000000000e+000
          2.835820895511e+001 0.000000000000e+000 0.000000000000e+000
          2.985074626854e+001 0.000000000000e+000 0.000000000000e+000
          3.134328358196e+001 0.000000000000e+000 0.000000000000e+000
          3.283582089539e+001 0.000000000000e+000 0.000000000000e+000
          3.432835820881e+001 0.000000000000e+000 0.000000000000e+000
          3.582089552224e+001 0.000000000000e+000 0.000000000000e+000
          3.731343283566e+001 0.000000000000e+000 0.000000000000e+000
          3.880597014909e+001 0.000000000000e+000 0.000000000000e+000
          4.029850746251e+001 0.000000000000e+000 0.000000000000e+000
          4.179104477594e+001 0.000000000000e+000 0.000000000000e+000
          4.328358208936e+001 0.000000000000e+000 0.000000000000e+000
          4.477611940279e+001 0.000000000000e+000 0.000000000000e+000
          4.626865671621e+001 0.000000000000e+000 0.000000000000e+000
          4.776119402964e+001 0.000000000000e+000 0.000000000000e+000
          4.925373134306e+001 0.000000000000e+000 0.000000000000e+000
          5.074626865649e+001 0.000000000000e+000 0.000000000000e+000
          5.223880596991e+001 0.000000000000e+000 0.000000000000e+000
          5.373134328334e+001 0.000000000000e+000 0.000000000000e+000
          5.522388059676e+001 0.000000000000e+000 0.000000000000e+000
          5.671641791019e+001 0.000000000000e+000 0.000000000000e+000
          5.820895522361e+001 0.000000000000e+000 0.000000000000e+000
          5.970149253704e+001 0.000000000000e+000 0.000000000000e+000
          6.119402985046e+001 0.000000000000e+000 0.000000000000e+000
          6.268656716389e+001 0.000000000000e+000 0.000000000000e+000
          6.417910447732e+001 0.000000000000e+000 0.000000000000e+000
          6.567164179075e+001 0.000000000000e+000 0.000000000000e+000
          6.716417910418e+001 0.000000000000e+000 0.000000000000e+000
          6.865671641761e+001 0.000000000000e+000 0.000000000000e+000
          7.014925373104e+001 0.000000000000e+000 0.000000000000e+000
          7.164179104447e+001 0.000000000000e+000 0.000000000000e+000
          7.313432835790e+001 0.000000000000e+000 0.000000000000e+000
          7.462686567133e+001 0.000000000000e+000 0.000000000000e+000
          7.611940298476e+001 0.000000000000e+000 0.000000000000e+000
          7.761194029819e+001 0.000000000000e+000 0.000000000000e+000
          7.910447761162e+001 0.000000000000e+000 0.000000000000e+000
          8.059701492505e+001 0.000000000000e+000 0.000000000000e+000
          8.208955223848e+001 0.000000000000e+000 0.000000000000e+000
          8.358208955191e+001 0.000000000000e+000 0.000000000000e+000
          8.507462686534e+001 0.000000000000e+000 0.000000000000e+000
          8.656716417877e+001 0.000000000000e+000 0.000000000000e+000
          8.805970149220e+001 0.000000000000e+000 0.000000000000e+000
          8.955223880563e+001 0.000000000000e+000 0.000000000000e+000
          9.104477611907e+001 0.000000000000e+000 0.000000000000e+000
          9.253731343250e+001 0.000000000000e+000 0.000000000000e+000
          9.402985074593e+001 0.000000000000e+000 0.000000000000e+000
          9.552238805936e+001 0.000000000000e+000 0.000000000000e+000
          9.701492537279e+001 0.000000000000e+000 0.000000000000e+000
          9.850746268622e+001 0.000000000000e+000 0.000000000000e+000
          9.999999999965e+001 0.000000000000e+000 0.000000000000e+000
          1.014925373131e+002 0.000000000000e+000 0.000000000000e+000
          1.029850746265e+002 0.000000000000e+000 0.000000000000e+000
          1.044776119399e+002 0.000000000000e+000 0.000000000000e+000
          1.059701492534e+002 0.000000000000e+000 0.000000000000e+000
          1.074626865668e+002 0.000000000000e+000 0.000000000000e+000
          1.089552238802e+002 0.000000000000e+000 0.000000000000e+000
          1.104477611937e+002 0.000000000000e+000 0.000000000000e+000
          1.119402985071e+002 0.000000000000e+000 0.000000000000e+000
          1.134328358205e+002 0.000000000000e+000 0.000000000000e+000
          1.149253731340e+002 0.000000000000e+000 0.000000000000e+000
          1.164179104474e+002 0.000000000000e+000 0.000000000000e+000
          1.179104477608e+002 0.000000000000e+000 0.000000000000e+000
          1.194029850742e+002 0.000000000000e+000 0.000000000000e+000
          1.208955223877e+002 0.000000000000e+000 0.000000000000e+000
          1.223880597011e+002 0.000000000000e+000 0.000000000000e+000
          1.238805970145e+002 0.000000000000e+000 0.000000000000e+000
          1.253731343280e+002 0.000000000000e+000 0.000000000000e+000
          1.268656716414e+002 0.000000000000e+000 0.000000000000e+000
          1.283582089548e+002 0.000000000000e+000 0.000000000000e+000
          1.298507462683e+002 0.000000000000e+000 0.000000000000e+000
          1.313432835817e+002 0.000000000000e+000 0.000000000000e+000
          1.328358208952e+002 0.000000000000e+000 0.000000000000e+000
          1.343283582086e+002 0.000000000000e+000 0.000000000000e+000
          1.358208955220e+002 0.000000000000e+000 0.000000000000e+000
          1.373134328355e+002 0.000000000000e+000 0.000000000000e+000
          1.388059701489e+002 0.000000000000e+000 0.000000000000e+000
          1.402985074624e+002 0.000000000000e+000 0.000000000000e+000
          1.417910447758e+002 0.000000000000e+000 0.000000000000e+000
          1.432835820892e+002 0.000000000000e+000 0.000000000000e+000
          1.447761194027e+002 0.000000000000e+000 0.000000000000e+000
          1.462686567161e+002 0.000000000000e+000 0.000000000000e+000
          1.477611940296e+002 0.000000000000e+000 0.000000000000e+000
          1.492537313430e+002 0.000000000000e+000 0.000000000000e+000
          1.507462686564e+002 0.000000000000e+000 0.000000000000e+000
          1.522388059699e+002 0.000000000000e+000 0.000000000000e+000
          1.537313432833e+002 0.000000000000e+000 0.000000000000e+000
          1.552238805968e+002 0.000000000000e+000 0.000000000000e+000
          1.567164179102e+002 0.000000000000e+000 0.000000000000e+000
          1.582089552237e+002 0.000000000000e+000 0.000000000000e+000
          1.597014925371e+002 0.000000000000e+000 0.000000000000e+000
          1.611940298505e+002 0.000000000000e+000 0.000000000000e+000
          1.626865671640e+002 0.000000000000e+000 0.000000000000e+000
          1.641791044774e+002 0.000000000000e+000 0.000000000000e+000
          1.656716417909e+002 0.000000000000e+000 0.000000000000e+000
          1.671641791043e+002 0.000000000000e+000 0.000000000000e+000
          1.686567164177e+002 0.000000000000e+000 0.000000000000e+000
          1.701492537312e+002 0.000000000000e+000 0.000000000000e+000
          1.716417910446e+002 0.000000000000e+000 0.000000000000e+000
          1.731343283581e+002 0.000000000000e+000 0.000000000000e+000
          1.746268656715e+002 0.000000000000e+000 0.000000000000e+000
          1.761194029849e+002 0.000000000000e+000 0.000000000000e+000
          1.776119402984e+002 0.000000000000e+000 0.000000000000e+000
          1.791044776118e+002 0.000000000000e+000 0.000000000000e+000
          1.805970149253e+002 0.000000000000e+000 0.000000000000e+000
          1.820895522387e+002 0.000000000000e+000 0.000000000000e+000
          1.835820895521e+002 0.000000000000e+000 0.000000000000e+000
          1.850746268656e+002 0.000000000000e+000 0.000000000000e+000
          1.865671641790e+002 0.000000000000e+000 0.000000000000e+000
          1.880597014925e+002 0.000000000000e+000 0.000000000000e+000
          1.895522388059e+002 0.000000000000e+000 0.000000000000e+000
          1.910447761194e+002 0.000000000000e+000 0.000000000000e+000
          1.925373134328e+002 0.000000000000e+000 0.000000000000e+000
          1.940298507462e+002 0.000000000000e+000 0.000000000000e+000
          1.955223880597e+002 0.000000000000e+000 0.000000000000e+000
          1.970149253731e+002 0.000000000000e+000 0.000000000000e+000
          1.985074626866e+002 0.000000000000e+000 0.000000000000e+000
          2.000000000000e+002 1.428571428570e+000 0.000000000000e+000
          2.000000000000e+002 2.857142857140e+000 0.000000000000e+000
[...]
      <PointData Scalars="MEAN_PRESSURE">
        <DataArray type="Float64" Name="MEAN_PRESSURE" format="ascii">
          2.000000000000e+002 1.999311927332e+002 1.999311919058e+002 2.000000000000e+002 1.991425728655e+002 1.977192977375e+002 1.969450472898e+002 1.965588853038e+002 1.964114315347e+002 1.963904530382e+002 1.964225734953e+002 1.964754148393e+002 1.965331271501e+002 1.965905879424e+002 1.966468984440e+002 1.967023500568e+002 1.967574021923e+002 1.968123253824e+002 1.968672535795e+002 1.969222133799e+002 1.969771900701e+002 1.970321256570e+002 1.970869920329e+002 1.971417484061e+002 1.971963569084e+002 1.972507784046e+002 1.973049899176e+002 1.973589590293e+002 1.974126510365e+002 1.974660429891e+002 1.975191080676e+002 1.975718312018e+002 1.976241775123e+002 1.976761314099e+002 1.977276707305e+002 1.977787702295e+002 1.978294202587e+002 1.978795888388e+002 1.979292673150e+002 1.979784438209e+002 1.980270857274e+002 1.980751696057e+002 1.981227053784e+002 1.981696625867e+002 1.982160365246e+002 1.982618088821e+002 1.983069794894e+002 1.983515017182e+002 1.983954140505e+002 1.984386666534e+002 1.984812590042e+002 1.985231904990e+002 1.985644662004e+002 1.986050266761e+002 1.986449190452e+002 1.986841215009e+002 1.987226365764e+002 1.987604345228e+002 1.987975229429e+002 1.988339367026e+002 1.988696029849e+002 1.989045610180e+002 1.989388061026e+002 1.989723511304e+002 1.990051764198e+002 1.990372887356e+002 1.990686918913e+002 1.990993806755e+002 1.991293705815e+002 1.991586485059e+002 1.991872413618e+002 1.992151249636e+002 1.992423268509e+002 1.992688400722e+002 1.992946705285e+002 1.993198344546e+002 1.993443232913e+002 1.993681640957e+002 1.993913462111e+002 1.994138857895e+002 1.994357786930e+002 1.994570532352e+002 1.994777005669e+002 1.994977417792e+002 1.995171760290e+002 1.995360157702e+002 1.995542742384e+002 1.995719573715e+002 1.995890751169e+002 1.996056386067e+002 1.996216575810e+002 1.996371431029e+002 1.996521054452e+002 1.996665510456e+002 1.996804879065e+002 1.996939375574e+002 1.997068983427e+002 1.997193866646e+002 1.997314133513e+002 1.997429899832e+002 1.997541220749e+002 1.997648175548e+002 1.997750957734e+002 1.997849561761e+002 1.997944137169e+002 1.998034785195e+002 1.998121612106e+002 1.998204671192e+002 1.998284035120e+002 1.998359871976e+002 1.998432179870e+002 1.998501085674e+002 1.998566683768e+002 1.998629071362e+002 1.998688271857e+002 1.998744353630e+002 1.998797460690e+002 1.998847585082e+002 1.998894829057e+002 1.998939263862e+002 1.998980967891e+002 1.999019971028e+002 1.999056306956e+002 1.999090050762e+002 1.999121247774e+002 1.999149925111e+002 1.999176176706e+002 1.999200038803e+002 1.999221483091e+002 1.999240629118e+002 1.999257487316e+002 1.999271936149e+002 1.999284153602e+002 1.999294131591e+002 1.999302000108e+002 1.999307306667e+002 1.999310719231e+002 1.999311809307e+002 1.999311699388e+002 1.999311938076e+002 1.999311890211e+002 1.999311866795e+002 1.999311823705e+002 1.999311795449e+002 1.999311815072e+002 1.999311817346e+002 1.999311763465e+002 1.999311912493e+002 1.999311686083e+002 1.999311800143e+002 1.999310711799e+002 1.999307300804e+002 1.999301995042e+002 1.999294126573e+002 1.999284149781e+002 1.999271939510e+002 1.999257497708e+002 1.999240641078e+002 1.999221494500e+002 1.999200049710e+002 1.999176179765e+002 1.999149930229e+002 1.999121246820e+002 1.999090043223e+002 1.999056301347e+002 1.999019958963e+002 1.998980952365e+002 1.998939299918e+002 1.998894859304e+002 1.998847593044e+002 1.998797459374e+002 1.998744364618e+002 1.998688247053e+002 1.998629068868e+002 1.998566708937e+002 1.998501119633e+002 1.998432180206e+002 1.998359862040e+002 1.998284015960e+002 1.998204660674e+002 1.998121596486e+002 1.998034793449e+002 1.997944152286e+002 1.997849535376e+002 1.997750940663e+002 1.997648158396e+002 1.997541216662e+002 1.997429887886e+002 1.997314144786e+002 1.997193879757e+002 1.997068946064e+002 1.996939353455e+002 1.996804863336e+002 1.996665511589e+002 1.996521049133e+002 1.996371397650e+002 1.996216588651e+002 1.996056394806e+002 1.995890754935e+002 1.995719572916e+002 1.995542759433e+002 1.995360219056e+002 1.995171811278e+002 1.994977413985e+002 1.994777067414e+002 1.994570534877e+002 1.994357801385e+002 1.994138798438e+002 1.993913488386e+002 1.993681637519e+002 1.993443308029e+002 1.993198376943e+002 1.992946731582e+002 1.992688360069e+002 1.992423225123e+002 1.992151280256e+002 1.991872390452e+002 1.991586543962e+002 1.991293679803e+002 1.990993808007e+002 1.990686865737e+002 1.990372856651e+002 1.990051776122e+002 1.989723526207e+002 1.989388136377e+002 1.989045585316e+002 1.988695924557e+002 1.988339131173e+002 1.987975246835e+002 1.987604336163e+002 1.987226332016e+002 1.986841301023e+002 1.986449259140e+002 1.986050314343e+002 1.985644481676e+002 1.985231877966e+002 1.984812564345e+002 1.984386475313e+002 1.983954021742e+002 1.983515079078e+002 1.983069705160e+002 1.982618165984e+002 1.982160331642e+002 1.981696511671e+002 1.981226891928e+002 1.980751467779e+002 1.980270439602e+002 1.979783990669e+002 1.979292224116e+002 1.978795278511e+002 1.978293433205e+002 1.977786740136e+002 1.977275440709e+002 1.976759724743e+002 1.976239792685e+002 1.975715791421e+002 1.975187902625e+002 1.974656401500e+002 1.974121389935e+002 1.973583109325e+002 1.973041757675e+002 1.972497538331e+002 1.971950592861e+002 1.971401084159e+002 1.970849187157e+002 1.970295035364e+002 1.969738723611e+002 1.969180273322e+002 1.968619665334e+002 1.968056347481e+002 1.967489609953e+002 1.966916984673e+002 1.966334629606e+002 1.965737307423e+002 1.965120585830e+002 1.964494611785e+002 1.963914730123e+002 1.963525113194e+002 1.963726701583e+002 1.965224354296e+002 1.969054240280e+002 1.976903814517e+002 1.991114708800e+002 2.000000000000e+002 2.000000000000e+002 2.000000000000e+002 2.000000000000e+002 2.000000000000e+002 2.000000000000e+002 2.000000000000e+002 2.000000000000e+002 2.000000000000e+002 2.000000000000e+002 2.000000000000e+002 2.000000000000e+002 2.000000000000e+002 1.999261895263e+002 1.963802404066e+002 1.999106939491e+002 1.998823818338e+002 1.998391870346e+002 1.997794525452e+002 1.996996561586e+002 1.970583768209e+002 1.995974136611e+002 1.974424877221e+002 1.978072716457e+002 1.981520801104e+002 1.986216564127e+002 1.988871484465e+002 1.991144447840e+002 1.993073206660e+002 1.994674380381e+002 1.967300734805e+002 1.983954114946e+002 1.995360082326e+002 1.995351624221e+002 1.993913475248e+002 1.992151260460e+002 1.990051789337e+002 1.987604382230e+002 1.998987077820e+002 1.998638264228e+002 1.998131463728e+002 1.987604244311e+002 1.989993315938e+002 1.992173468538e+002 1.993872260797e+002 1.997443105015e+002 1.996520951904e+002 1.972478163472e+002 1.976179794295e+002 1.979839283102e+002 1.996527870588e+002 1.997430952108e+002 1.998122395039e+002 1.998628989706e+002 1.998980900551e+002 1.979778990894e+002 1.976234870127e+002 1.972499800530e+002 1.999197659777e+002 1.999196230100e+002 1.983005404072e+002 1.984925386045e+002 1.965780612756e+002 1.968705451891e+002 1.999294460025e+002 1.965372812821e+002 1.999294735476e+002 1.965142829515e+002 1.965455732476e+002 1.969142097970e+002 1.982514467240e+002 1.985291251526e+002 1.999105995788e+002 1.994674434186e+002 1.998822838125e+002 1.993073371904e+002 1.991144635197e+002 1.988871651450e+002 1.986335206577e+002 1.995972543620e+002 1.998397650551e+002 1.997809459817e+002 1.997016238305e+002 1.974383231681e+002 1.977996208561e+002 1.995975737765e+002 1.997004670579e+002 1.997800692728e+002 1.998396393952e+002 1.988870866415e+002 1.991143939118e+002 1.993072739380e+002 1.998822836842e+002 1.994678106990e+002 1.999105953788e+002 1.981462503164e+002 1.978040707042e+002 1.974389903641e+002 1.970575597669e+002 1.999255561630e+002 1.999256609368e+002 1.963903893568e+002 1.970878120972e+002 1.986529678880e+002 1.981101107200e+002 1.999302752724e+002 1.969850891919e+002 1.967353242343e+002 1.963998264971e+002 1.967270981192e+002 1.983703132932e+002 1.982772739587e+002 1.985104415931e+002 1.965512531337e+002 1.968787057562e+002 1.983963925819e+002 1.999214973156e+002 1.998196661564e+002 1.998568903240e+002 1.997530482712e+002 1.998940731794e+002 1.996651341145e+002 1.994101134985e+002 1.990319126676e+002 1.987913151303e+002 1.992396673186e+002 1.973025668273e+002 1.979340410029e+002 1.975768275800e+002 1.995190051828e+002 1.983954050733e+002 1.999306278670e+002 1.975354642262e+002 1.999306278772e+002 1.974916112034e+002 1.994218144694e+002 1.992519196715e+002 1.990486453676e+002 1.988106797393e+002 1.996316141689e+002 1.995094689642e+002 1.995606832402e+002 1.997271259008e+002 1.980443995398e+002 1.998002509252e+002 1.976945762426e+002 1.998543347341e+002 1.973237323908e+002 1.998923506902e+002 1.998921832217e+002 1.999035916241e+002 1.998540851238e+002 1.998709845892e+002 1.997994138913e+002 1.998230435026e+002 1.997260136120e+002 1.997575922267e+002 1.973317078227e+002 1.996709812883e+002 1.996315697855e+002 1.976995538877e+002 1.975548725764e+002 1.988108970112e+002 1.990499401730e+002 1.992540559159e+002 1.989615357860e+002 1.991779115314e+002 1.994208330554e+002 1.993604893641e+002 1.979257027727e+002 1.995607287935e+002 1.995131232511e+002 1.999033320117e+002 1.971754141807e+002 1.998700028633e+002 1.975604960941e+002 1.998221627530e+002 1.979187853818e+002 1.997564030225e+002 1.987026344450e+002 1.989569991107e+002 1.991741653775e+002 1.993568458176e+002 1.996695199571e+002 1.967053096137e+002 1.999165434894e+002 1.999164266816e+002 1.985370263055e+002 1.982416858198e+002 1.969439002319e+002 1.995591496620e+002 1.991787433779e+002 1.993615815275e+002 1.989630786765e+002 1.987034089710e+002 1.971794445143e+002 1.976902207279e+002 1.999031019863e+002 1.980414883508e+002 1.998703859536e+002 1.998010267167e+002 1.996329454310e+002 1.997281566586e+002 1.971950436337e+002 1.999222266275e+002 1.999222261681e+002 1.984630773682e+002 1.965129261664e+002 1.999167908776e+002 1.995735251780e+002 1.996204697176e+002 1.997184478814e+002 1.980760181087e+002 1.997937045746e+002 1.977315090150e+002 1.989362769537e+002 1.991564835720e+002 1.993425212076e+002 1.999056975158e+002 1.971396356026e+002 1.998748524627e+002 1.968411001656e+002 1.986874080575e+002 1.999283641664e+002 1.999282275814e+002 1.999146553062e+002 1.987274926207e+002 1.980210626392e+002 1.985692498979e+002 1.982091945666e+002 1.963628134109e+002 1.969835248446e+002 1.964598862099e+002 1.966159478087e+002 1.969841999317e+002 1.994347549939e+002 1.992680108357e+002 1.990677011480e+002 1.988327711761e+002 1.998504600500e+002 1.973557407900e+002 1.998897316936e+002 1.994969417269e+002 1.996801275832e+002 1.998498442992e+002 1.997652725894e+002 1.998893065386e+002 1.998287366708e+002 1.994373281634e+002 1.992679422471e+002 1.990699751362e+002 1.988354083880e+002 1.973610310564e+002 1.978810068704e+002 1.975168082753e+002 1.975166692718e+002 1.998287295179e+002 1.978774515967e+002 1.997652517283e+002 1.996810535579e+002 1.994969133478e+002 1.999306841851e+002 1.999307168470e+002 1.976397741648e+002 1.975016473143e+002 1.999286136264e+002 1.963963183973e+002 1.999240473677e+002 1.999243591160e+002 1.963471681888e+002 1.999275144946e+002 1.964304238392e+002 1.964310131638e+002 1.981973962087e+002 1.985817272507e+002 1.970151602870e+002 1.964915860403e+002 1.981658348281e+002 1.968171137929e+002 1.968070419481e+002 1.986099899629e+002 1.966653160355e+002 1.982813736144e+002 1.984584385126e+002 1.966273484216e+002 1.977156979028e+002 1.996261730661e+002 1.997222343143e+002 1.997965626051e+002 1.998738214146e+002 1.999052671822e+002 1.995669597413e+002 1.986923131807e+002 1.989457345552e+002 1.991645590037e+002 1.993492601944e+002 1.983291678484e+002 1.968169647679e+002 1.984672950321e+002 1.983170421385e+002 1.999153480899e+002 1.999270978670e+002 1.971548366009e+002 1.980534482768e+002 1.963738277457e+002 1.964549466076e+002 1.999292033723e+002 1.966503968017e+002 1.994560496949e+002 1.992934516640e+002 1.990979336904e+002 1.988679111380e+002 1.996052324624e+002 1.995894710783e+002 1.994789616307e+002 1.997074801082e+002 1.997853965638e+002 1.981204605461e+002 1.998435389052e+002 1.977762722632e+002 1.998849781277e+002 1.974096287357e+002 1.999089237786e+002 1.998848090368e+002 1.998436537443e+002 1.997856930391e+002 1.997078685964e+002 1.974092582940e+002 1.977747798505e+002 1.988692056431e+002 1.990976957767e+002 1.992932523706e+002 1.999088466260e+002 1.970875896137e+002 1.986486789501e+002 1.999108323024e+002 1.999249005195e+002 1.999249020644e+002 1.971135014824e+002 1.969700658120e+002 1.964168407144e+002 1.984425880963e+002 1.999002897747e+002 1.998662261783e+002 1.998073848354e+002 1.997366161194e+002 1.996425368636e+002 1.972198942230e+002 1.976529465793e+002 1.980054665783e+002 1.993793002481e+002 1.989880957216e+002 1.987410665749e+002 1.991972741364e+002 1.995478253794e+002 1.999184628115e+002 1.999297134852e+002 1.999297141390e+002 1.998814256091e+002 1.997816437548e+002 1.997025415960e+002 1.977960112176e+002 1.988930950955e+002 1.991195481414e+002 1.993116002575e+002 1.966257158711e+002 1.983487092328e+002 1.996005053776e+002 1.995944108706e+002 1.986326115069e+002 1.999309378138e+002 1.983188724887e+002 1.980873458351e+002 1.986752368403e+002 1.996515478631e+002 1.997425584535e+002 1.998118374867e+002 1.998980917804e+002 1.998629149170e+002 1.979802066502e+002 1.976259173589e+002 1.972497824735e+002 1.992151228115e+002 1.993913455144e+002 1.987604256160e+002 1.990051722731e+002 1.998980889725e+002 1.998629019509e+002 1.990051564848e+002 1.992155851797e+002 1.998121505809e+002 1.993915389966e+002 1.997429783635e+002 1.996522301380e+002 1.976241615247e+002 1.995366984214e+002 1.995360065258e+002 1.967832602099e+002 1.982100427001e+002 1.967633633191e+002 1.987069614483e+002 1.984063377294e+002 1.999227967997e+002 1.999226029820e+002 1.985221752435e+002 1.985456679716e+002 1.984263003616e+002 1.996126192800e+002 1.994479435163e+002 1.994864280485e+002 1.995817524457e+002 1.993304843052e+002 1.991420919823e+002 1.989194283051e+002 1.996881881623e+002 1.974889787984e+002 1.978511345971e+002 1.998778310972e+002 1.998327529269e+002 1.997707064639e+002 1.998774892583e+002 1.974886373322e+002 1.998327558316e+002 1.978510677262e+002 1.989194348517e+002 1.991420979276e+002 1.993270654363e+002 1.997707088937e+002 1.996881898113e+002 1.967523339216e+002 1.964788534398e+002 1.999298464625e+002 1.967048869990e+002 1.994681987704e+002 1.994666870316e+002 1.974377435428e+002 1.974371137245e+002 1.998399012765e+002 1.998398412122e+002 1.999279826442e+002 1.966645059655e+002 1.963900837489e+002 1.970907556425e+002 1.967224961795e+002 1.999309585468e+002 1.984373826058e+002 1.999309717199e+002 1.983265145441e+002 1.965811480166e+002 1.999132865287e+002 1.999133414739e+002 1.997001047644e+002 1.997797933345e+002 1.978055160767e+002 1.993062289618e+002 1.988856242911e+002 1.991131372373e+002 1.998823337222e+002 1.969051032741e+002 1.969151567068e+002 1.964632896376e+002 1.985896208160e+002 1.981878414600e+002 1.964675792283e+002 1.970085609595e+002 1.972629940363e+002 1.982715972091e+002 1.969565685113e+002 1.999194697562e+002 1.999194701519e+002 1.982378314858e+002 1.985590891232e+002 1.999164281797e+002 1.981108042404e+002 1.985664668406e+002 1.985183910714e+002 1.998706013116e+002 1.971760100025e+002 1.999032963380e+002 1.989366152415e+002 1.991562499716e+002 1.993427616139e+002 1.995745646408e+002 1.976964596572e+002 1.997999243106e+002 1.980456942549e+002 1.997266922104e+002 1.996192759256e+002 1.999105115581e+002 1.968088036005e+002 1.984637161674e+002 1.983603294650e+002 1.981448817305e+002 1.965845993874e+002 1.999309922975e+002 1.985485738142e+002 1.999309930730e+002 1.986734808654e+002 1.963495304594e+002 1.970602573291e+002 1.983886891954e+002 1.982730166055e+002 1.999280946679e+002 1.979609507282e+002 1.987712451037e+002 1.969103871121e+002 1.985951301880e+002 1.966826523879e+002 1.996705352620e+002 1.997571836444e+002 1.998227433445e+002 1.979151563662e+002 1.975566661259e+002 1.998293050055e+002 1.998889983526e+002 1.997660416964e+002 1.998494129164e+002 1.996820957069e+002 1.975128148272e+002 1.978736890715e+002 1.973647056550e+002 1.988377067674e+002 1.992719026150e+002 1.990718910954e+002 1.994383157744e+002 1.998920714584e+002 1.998539242774e+002 1.973272191332e+002 1.995116967656e+002 1.988078935902e+002 1.990462370820e+002 1.992498840973e+002 1.994201286574e+002 1.994956976152e+002 1.995360120978e+002 1.993913213432e+002 1.990051509611e+002 1.992151197746e+002 1.987604126025e+002 1.998980940174e+002 1.998629032036e+002 1.998122739472e+002 1.996520997657e+002 1.997431425245e+002 1.972506801967e+002 1.976233350894e+002 1.979783638891e+002 1.981834042886e+002 1.969911161849e+002 1.999278956483e+002 1.963572792999e+002 1.994933481423e+002 1.994405373268e+002 1.992741903183e+002 1.990750456946e+002 1.988412990949e+002 1.998483548690e+002 1.998883090766e+002 1.973724796887e+002 1.998300949806e+002 1.997669047946e+002 1.996830951365e+002 1.975071955312e+002 1.978699403216e+002 1.983806271981e+002 1.999197677620e+002 1.983452958778e+002 1.999214312418e+002 1.995335344231e+002 1.995376116442e+002 1.993962460337e+002 1.992209471745e+002 1.990121473142e+002 1.987684825809e+002 1.998975548716e+002 1.998620920985e+002 1.998105818813e+002 1.997408823822e+002 1.996540401151e+002 1.976337546921e+002 1.996508308571e+002 1.990094739976e+002 1.992114540439e+002 1.993943696816e+002 1.997422390199e+002 1.998115978737e+002 1.979815592268e+002 1.998629758049e+002 1.976273757845e+002 1.998981410624e+002 1.972491453000e+002 1.967314334290e+002 1.998577540938e+002 1.972951537316e+002 1.998946550090e+002 1.990302690122e+002 1.994089651728e+002 1.992378313174e+002 1.987894135639e+002 1.975841064846e+002 1.998185101956e+002 1.979409231351e+002 1.997514974267e+002 1.996628641146e+002 1.995220565688e+002 1.963803843459e+002 1.999309760378e+002 1.984723282023e+002 1.999237738234e+002 1.999268750712e+002 1.999268735503e+002 1.983353648282e+002 1.984541639807e+002 1.968938224355e+002 1.972582679451e+002 1.999147999750e+002 1.963571525039e+002 1.999194563324e+002 1.999193912751e+002 1.970427384518e+002 1.996187013265e+002 1.997172789334e+002 1.980817052675e+002 1.997928209272e+002 1.977364087093e+002 1.993444855453e+002 1.991565039106e+002 1.989390394923e+002 1.995742787900e+002 1.999061977578e+002 1.971265087940e+002 1.998753687128e+002 1.981431678790e+002 1.986291584236e+002 1.983056364471e+002 1.965687760243e+002 1.964474831903e+002 1.999303759307e+002 1.971373511696e+002 1.999303756740e+002 1.970631733095e+002 1.987737762319e+002 1.979623255584e+002 1.986747682156e+002 1.966185031120e+002 1.999075310660e+002 1.967024374362e+002 1.982472913256e+002 1.984988658566e+002 1.982982788401e+002 1.968772544890e+002 1.965696858520e+002 1.967442988807e+002 1.980340860450e+002 1.965677514629e+002 1.968031273413e+002 1.983259230671e+002 1.963921400552e+002 1.965097665878e+002 1.984202020498e+002 1.982212231792e+002 1.985077408894e+002 1.982664959938e+002 1.999256539688e+002 1.964021586473e+002 1.971616608021e+002 1.995500839963e+002 1.995807988455e+002 1.999074346986e+002 1.998773532884e+002 1.999014893935e+002 1.998677873866e+002 1.997930550844e+002 1.997175871462e+002 1.977352829886e+002 1.996406855425e+002 1.996135241389e+002 1.987246525278e+002 1.986694961884e+002 1.989745079943e+002 1.989218801528e+002 1.991441887434e+002 1.991891103599e+002 1.993696026218e+002 1.993321665416e+002 1.964953805533e+002 1.999293999800e+002 1.999293843673e+002 1.999303082186e+002 1.999303086143e+002 1.967796500584e+002 1.999300593352e+002 1.994247750144e+002 1.992555019517e+002 1.990528827188e+002 1.988155854997e+002 1.995076048136e+002 1.995630817332e+002 1.996295630376e+002 1.997255309087e+002 1.980508712854e+002 1.997990503275e+002 1.977014991016e+002 1.998534690865e+002 1.973309571951e+002 1.998917665126e+002 1.998917582823e+002 1.998534564205e+002 1.999038450829e+002 1.997989938883e+002 1.997254560089e+0