<?xml version="1.0"?>
<VTKFile type="UnstructuredGrid" version="0.1" byte_order="LittleEndian">
  <UnstructuredGrid>
    <Piece NumberOfPoints="2604" NumberOfCells="4910">
      <Points>
        <DataArray type="Float64" NumberOfComponents="3" format="ascii">
          0.000000000000e+000 0.000000000000e+000 0.000000000000e+000
          2.000000000000e+002 0.000000000000e+000 0.000000000000e+000
          2.000000000000e+002 2.000000000000e+001 0.000000000000e+000
          0.000000000000e+000 2.000000000000e+001 0.000000000000e+000
          1.492537313427e+000 0.000000000000e+000 0.000000000000e+000
          2.985074626854e+000 0.000000000000e+000 0.000000000000e+000
          4.477611940281e+000 0.000000000000e+000 0.000000000000e+000
          5.970149253708e+000 0.000000000000e+000 0.000000000000e+000
          7.462686567135e+000 0.000000000000e+000 0.000000000000e+000
          8.955223880561e+000 0.000000000000e+000 0.000000000000e+000
          1.044776119399e+001 0.000000000000e+000 0.000000000000e+000
          1.194029850741e+001 0.000000000000e+000 0.000000000000e+000
          1.343283582084e+001 0.000000000000e+000 0.000000000000e+000
          1.492537313427e+001 0.000000000000e+000 0.000000000000e+000
          1.641791044770e+001 0.000000000000e+000 0.000000000000e+000
          1.791044776112e+001 0.000000000000e+000 0.000000000000e+000
          1.940298507455e+001 0.000000000000e+000 0.000000000000e+000
          2.089552238798e+001 0.000000000000e+000 0.000000000000e+000
          2.238805970141e+001 0.000000000000e+000 0.000000000000e+000
          2.388059701484e+001 0.000000000000e+000 0.000000000000e+000
          2.537313432826e+001 0.000000000000e+000 0.000000000000e+000
          2.686567164169e+001 0.000000000000e+000 0.000000000000e+000
          2.835820895511e+001 0.000000000000e+000 0.000000000000e+000
          2.985074626854e+001 0.000000000000e+000 0.000000000000e+000
          3.134328358196e+001 0.000000000000e+000 0.000000000000e+000
          3.283582089539e+001 0.000000000000e+000 0.000000000000e+000
          3.432835820881e+001 0.000000000000e+000 0.000000000000e+000
          3.582089552224e+001 0.000000000000e+000 0.000000000000e+000
          3.731343283566e+001 0.000000000000e+000 0.000000000000e+000
          3.880597014909e+001 0.000000000000e+000 0.000000000000e+000
          4.029850746251e+001 0.000000000000e+000 0.000000000000e+000
          4.179104477594e+001 0.000000000000e+000 0.000000000000e+000
          4.328358208936e+001 0.000000000000e+000 0.000000000000e+000
          4.477611940279e+001 0.000000000000e+000 0.000000000000e+000
          4.626865671621e+001 0.000000000000e+000 0.000000000000e+000
          4.776119402964e+001 0.000000000000e+000 0.000000000000e+000
          4.925373134306e+001 0.000000000000e+000 0.000000000000e+000
          5.074626865649e+001 0.000000000000e+000 0.000000000000e+000
          5.223880596991e+001 0.000000000000e+000 0.000000000000e+000
          5.373134328334e+001 0.000000000000e+000 0.000000000000e+000
          5.522388059676e+001 0.000000000000e+000 0.000000000000e+000
          5.671641791019e+001 0.000000000000e+000 0.000000000000e+000
          5.820895522361e+001 0.000000000000e+000 0.000000000000e+000
          5.970149253704e+001 0.000000000000e+000 0.000000000000e+000
          6.119402985046e+001 0.000000000000e+000 0.000000000000e+000
          6.268656716389e+001 0.000000000000e+000 0.000000000000e+000
          6.417910447732e+001 0.000000000000e+000 0.000000000000e+000
          6.567164179075e+001 0.000000000000e+000 0.000000000000e+000
          6.716417910418e+001 0.000000000000e+000 0.000000000000e+000
          6.865671641761e+001 0.000000000000e+000 0.000000000000e+000
          7.014925373104e+001 0.000000000000e+000 0.000000000000e+000
          7.164179104447e+001 0.000000000000e+000 0.000000000000e+000
          7.313432835790e+001 0.000000000000e+000 0.000000000000e+000
          7.462686567133e+001 0.000000000000e+000 0.000000000000e+000
          7.611940298476e+001 0.000000000000e+000 0.000000000000e+000
          7.761194029819e+001 0.000000000000e+000 0.000000000000e+000
          7.910447761162e+001 0.000000000000e+000 0.000000000000e+000
          8.059701492505e+001 0.000000000000e+000 0.000000000000e+000
          8.208955223848e+001 0.000000000000e+000 0.000000000000e+000
          8.358208955191e+001 0.000000000000e+000 0.000000000000e+000
          8.507462686534e+001 0.000000000000e+000 0.000000000000e+000
          8.656716417877e+001 0.000000000000e+000 0.000000000000e+000
          8.805970149220e+001 0.000000000000e+000 0.000000000000e+000
          8.955223880563e+001 0.000000000000e+000 0.000000000000e+000
          9.104477611907e+001 0.000000000000e+000 0.000000000000e+000
          9.253731343250e+001 0.000000000000e+000 0.000000000000e+000
          9.402985074593e+001 0.000000000000e+000 0.000000000000e+000
          9.552238805936e+001 0.000000000000e+000 0.000000000000e+000
          9.701492537279e+001 0.000000000000e+000 0.000000000000e+000
          9.850746268622e+001 0.000000000000e+000 0.000000000000e+000
          9.999999999965e+001 0.000000000000e+000 0.000000000000e+000
          1.014925373131e+002 0.000000000000e+000 0.000000000000e+000
          1.029850746265e+002 0.000000000000e+000 0.000000000000e+000
          1.044776119399e+002 0.000000000000e+000 0.000000000000e+000
          1.059701492534e+002 0.000000000000e+000 0.000000000000e+000
          1.074626865668e+002 0.000000000000e+000 0.000000000000e+000
          1.089552238802e+002 0.000000000000e+000 0.000000000000e+000
          1.104477611937e+002 0.000000000000e+000 0.000000000000e+000
          1.119402985071e+002 0.000000000000e+000 0.000000000000e+000
          1.134328358205e+002 0.000000000000e+000 0.000000000000e+000
          1.149253731340e+002 0.000000000000e+000 0.000000000000e+000
          1.164179104474e+002 0.000000000000e+000 0.000000000000e+000
          1.179104477608e+002 0.000000000000e+000 0.000000000000e+000
          1.194029850742e+002 0.000000000000e+000 0.000000000000e+000
          1.208955223877e+002 0.000000000000e+000 0.000000000000e+000
          1.223880597011e+002 0.000000000000e+000 0.000000000000e+000
          1.238805970145e+002 0.000000000000e+000 0.000000000000e+000
          1.253731343280e+002 0.000000000000e+000 0.000000000000e+000
          1.268656716414e+002 0.000000000000e+000 0.000000000000e+000
          1.283582089548e+002 0.000000000000e+000 0.000000000000e+000
          1.298507462683e+002 0.000000000000e+000 0.000000000000e+000
          1.313432835817e+002 0.000000000000e+000 0.000000000000e+000
          1.328358208952e+002 0.000000000000e+000 0.000000000000e+000
          1.343283582086e+002 0.000000000000e+000 0.000000000000e+000
          1.358208955220e+002 0.000000000000e+000 0.000000000000e+000
          1.373134328355e+002 0.000000000000e+000 0.000000000000e+000
          1.388059701489e+002 0.000000000000e+000 0.000000000000e+000
          1.402985074624e+002 0.000000000000e+000 0.000000000000e+000
          1.417910447758e+002 0.000000000000e+000 0.000000000000e+000
          1.432835820892e+002 0.000000000000e+000 0.000000000000e+000
          1.447761194027e+002 0.000000000000e+000 0.000000000000e+000
          1.462686567161e+002 0.000000000000e+000 0.000000000000e+000
          1.477611940296e+002 0.000000000000e+000 0.000000000000e+000
          1.492537313430e+002 0.000000000000e+000 0.000000000000e+000
          1.507462686564e+002 0.000000000000e+000 0.000000000000e+000
          1.522388059699e+002 0.000000000000e+000 0.000000000000e+000
          1.537313432833e+002 0.000000000000e+000 0.000000000000e+000
          1.552238805968e+002 0.000000000000e+000 0.000000000000e+000
          1.567164179102e+002 0.000000000000e+000 0.000000000000e+000
          1.582089552237e+002 0.000000000000e+000 0.000000000000e+000
          1.597014925371e+002 0.000000000000e+000 0.000000000000e+000
          1.611940298505e+002 0.000000000000e+000 0.000000000000e+000
          1.626865671640e+002 0.000000000000e+000 0.000000000000e+000
          1.641791044774e+002 0.000000000000e+000 0.000000000000e+000
          1.656716417909e+002 0.000000000000e+000 0.000000000000e+000
          1.671641791043e+002 0.000000000000e+000 0.000000000000e+000
          1.686567164177e+002 0.000000000000e+000 0.000000000000e+000
          1.701492537312e+002 0.000000000000e+000 0.000000000000e+000
          1.716417910446e+002 0.000000000000e+000 0.000000000000e+000
          1.731343283581e+002 0.000000000000e+000 0.000000000000e+000
          1.746268656715e+002 0.000000000000e+000 0.000000000000e+000
          1.761194029849e+002 0.000000000000e+000 0.000000000000e+000
          1.776119402984e+002 0.000000000000e+000 0.000000000000e+000
          1.791044776118e+002 0.000000000000e+000 0.000000000000e+000
          1.805970149253e+002 0.000000000000e+000 0.000000000000e+000
          1.820895522387e+002 0.000000000000e+000 0.000000000000e+000
          1.835820895521e+002 0.000000000000e+000 0.000000000000e+000
          1.850746268656e+002 0.000000000000e+000 0.000000000000e+000
          1.865671641790e+002 0.000000000000e+000 0.000000000000e+000
          1.880597014925e+002 0.000000000000e+000 0.000000000000e+000
          1.895522388059e+002 0.000000000000e+000 0.000000000000e+000
          1.910447761194e+002 0.000000000000e+000 0.000000000000e+000
          1.925373134328e+002 0.000000000000e+000 0.000000000000e+000
          1.940298507462e+002 0.000000000000e+000 0.000000000000e+000
          1.955223880597e+002 0.000000000000e+000 0.000000000000e+000
          1.970149253731e+002 0.000000000000e+000 0.000000000000e+000
          1.985074626866e+002 0.000000000000e+000 0.000000000000e+000
          2.000000000000e+002 1.428571428570e+000 0.000000000000e+000
          2.000000000000e+002 2.857142857140e+000 0.000000000000e+000
[...]
      <PointData Scalars="MEAN_PRESSURE">
        <DataArray type="Float64" Name="MEAN_PRESSURE" format="ascii">
          2.000000000000e+002 1.977469742064e+002 1.977469735733e+002 2.000000000000e+002 1.996902184070e+002 1.989871667137e+002 1.984600616718e+002 1.980366488431e+002 1.977013159952e+002 1.974419310977e+002 1.972412814729e+002 1.970913594525e+002 1.969814363880e+002 1.969039360281e+002 1.968510184786e+002 1.968178463194e+002 1.967993287194e+002 1.967917854734e+002 1.967921458995e+002 1.967981406140e+002 1.968079089311e+002 1.968202481797e+002 1.968340339742e+002 1.968485891361e+002 1.968634565289e+002 1.968783391339e+002 1.968930609836e+002 1.969075221280e+002 1.969216733148e+002 1.969355127542e+002 1.969490559873e+002 1.969623377087e+002 1.969753825159e+002 1.969882263174e+002 1.970008979890e+002 1.970134227151e+002 1.970258250639e+002 1.970381195046e+002 1.970503219347e+002 1.970624434882e+002 1.970744895919e+002 1.970864650062e+002 1.970983765422e+002 1.971102244404e+002 1.971220106818e+002 1.971337349156e+002 1.971453979647e+002 1.971569954239e+002 1.971685310854e+002 1.971799994953e+002 1.971913999604e+002 1.972027316024e+002 1.972139940584e+002 1.972251799004e+002 1.972362930338e+002 1.972473299062e+002 1.972582895414e+002 1.972691671744e+002 1.972799622028e+002 1.972906773409e+002 1.973013022988e+002 1.973118401278e+002 1.973222885858e+002 1.973326476144e+002 1.973429128635e+002 1.973530833459e+002 1.973631576475e+002 1.973731330043e+002 1.973830095234e+002 1.973927831819e+002 1.974024557229e+002 1.974120212245e+002 1.974214815451e+002 1.974308331952e+002 1.974400745488e+002 1.974492057113e+002 1.974582226043e+002 1.974671271851e+002 1.974759147826e+002 1.974845854271e+002 1.974931353995e+002 1.975015670133e+002 1.975098755119e+002 1.975180619223e+002 1.975261228620e+002 1.975340575449e+002 1.975418654860e+002 1.975495445470e+002 1.975570934660e+002 1.975645112251e+002 1.975717965353e+002 1.975789483920e+002 1.975859656386e+002 1.975928460633e+002 1.975995878565e+002 1.976061929391e+002 1.976126568513e+002 1.976189802595e+002 1.976251622744e+002 1.976312023241e+002 1.976370979042e+002 1.976428472915e+002 1.976484526713e+002 1.976539095298e+002 1.976592188045e+002 1.976643798110e+002 1.976693921889e+002 1.976742535393e+002 1.976789622815e+002 1.976835209068e+002 1.976879248943e+002 1.976921753446e+002 1.976962721116e+002 1.977002153709e+002 1.977040018355e+002 1.977076304976e+002 1.977111043793e+002 1.977144188752e+002 1.977175753037e+002 1.977205735412e+002 1.977234141082e+002 1.977260949202e+002 1.977286142247e+002 1.977309729205e+002 1.977331703861e+002 1.977352050371e+002 1.977370798789e+002 1.977387944878e+002 1.977403442182e+002 1.977417348279e+002 1.977429648547e+002 1.977440235609e+002 1.977449217503e+002 1.977456574081e+002 1.977462388395e+002 1.977466317264e+002 1.977468846162e+002 1.977469654544e+002 1.977469573048e+002 1.977469750037e+002 1.977469714523e+002 1.977469697117e+002 1.977469665181e+002 1.977469644223e+002 1.977469658753e+002 1.977469660429e+002 1.977469620459e+002 1.977469730915e+002 1.977469563004e+002 1.977469647556e+002 1.977468840458e+002 1.977466312733e+002 1.977462384473e+002 1.977456570213e+002 1.977449214515e+002 1.977440237801e+002 1.977429655752e+002 1.977417356503e+002 1.977403449875e+002 1.977387952026e+002 1.977370800508e+002 1.977352053371e+002 1.977331702894e+002 1.977309723991e+002 1.977286138381e+002 1.977260941474e+002 1.977234131457e+002 1.977205755986e+002 1.977175769900e+002 1.977144193027e+002 1.977111042745e+002 1.977076309984e+002 1.977040005012e+002 1.977002151433e+002 1.976962732431e+002 1.976921768706e+002 1.976879248834e+002 1.976835204318e+002 1.976789613914e+002 1.976742530154e+002 1.976693914825e+002 1.976643800783e+002 1.976592193108e+002 1.976539085103e+002 1.976484520107e+002 1.976428466428e+002 1.976370977243e+002 1.976312019239e+002 1.976251626577e+002 1.976189806854e+002 1.976126557704e+002 1.976061923228e+002 1.975995874360e+002 1.975928461309e+002 1.975859655469e+002 1.975789475758e+002 1.975717969027e+002 1.975645114844e+002 1.975570935922e+002 1.975495445513e+002 1.975418658735e+002 1.975340588818e+002 1.975261239477e+002 1.975180618513e+002 1.975098767785e+002 1.975015670873e+002 1.974931356730e+002 1.974845842946e+002 1.974759152196e+002 1.974671270726e+002 1.974582238593e+002 1.974492062131e+002 1.974400749344e+002 1.974308324762e+002 1.974214807973e+002 1.974120216368e+002 1.974024552992e+002 1.973927839828e+002 1.973830090762e+002 1.973731329518e+002 1.973631568322e+002 1.973530828495e+002 1.973429129387e+002 1.973326477151e+002 1.973222894588e+002 1.973118397141e+002 1.973013008851e+002 1.972906743471e+002 1.972799622274e+002 1.972691668378e+002 1.972582888621e+002 1.972473304952e+002 1.972362933153e+002 1.972251798084e+002 1.972139913538e+002 1.972027303396e+002 1.971913984525e+002 1.971799959349e+002 1.971685278373e+002 1.971569934629e+002 1.971453937708e+002 1.971337315324e+002 1.971220050963e+002 1.971102166516e+002 1.970983665323e+002 1.970864520986e+002 1.970744716622e+002 1.970624218725e+002 1.970502962848e+002 1.970380864821e+002 1.970257833441e+002 1.970133702020e+002 1.970008301982e+002 1.969881409098e+002 1.969752760915e+002 1.969622025482e+002 1.969488855686e+002 1.969352961105e+002 1.969213973067e+002 1.969071736311e+002 1.968926270270e+002 1.968777954354e+002 1.968627673379e+002 1.968477189869e+002 1.968329505685e+002 1.968189279024e+002 1.968063198419e+002 1.967961289428e+002 1.967895671627e+002 1.967885942320e+002 1.967952757239e+002 1.968128991693e+002 1.968451415657e+002 1.968962992169e+002 1.969730444625e+002 1.970818763585e+002 1.972311058133e+002 1.974285105201e+002 1.976893906717e+002 1.980259217349e+002 1.984484864684e+002 1.989799846925e+002 1.996790039806e+002 2.000000000000e+002 2.000000000000e+002 2.000000000000e+002 2.000000000000e+002 2.000000000000e+002 2.000000000000e+002 2.000000000000e+002 2.000000000000e+002 2.000000000000e+002 2.000000000000e+002 2.000000000000e+002 2.000000000000e+002 2.000000000000e+002 1.977432875313e+002 1.973083962461e+002 1.977321611744e+002 1.977128441600e+002 1.976854636856e+002 1.976508552868e+002 1.976090348088e+002 1.968263901304e+002 1.975608159981e+002 1.969293654064e+002 1.970203888293e+002 1.971057779322e+002 1.972297975233e+002 1.973065794327e+002 1.973780811180e+002 1.974446515177e+002 1.975057334189e+002 1.968034497618e+002 1.971685300683e+002 1.975340558677e+002 1.975336940367e+002 1.974759149850e+002 1.974120213753e+002 1.973429131644e+002 1.972691674497e+002 1.977238319027e+002 1.977007994615e+002 1.976699673273e+002 1.972691659537e+002 1.973410786880e+002 1.974127887426e+002 1.974743464593e+002 1.976318994981e+002 1.975859630061e+002 1.968774659887e+002 1.969738266860e+002 1.970637979117e+002 1.975862878428e+002 1.976312596430e+002 1.976694390914e+002 1.977002113247e+002 1.977234100802e+002 1.970623021893e+002 1.969751646779e+002 1.968779156480e+002 1.977386231811e+002 1.977385202490e+002 1.971437309092e+002 1.971944374228e+002 1.968963813304e+002 1.967907240099e+002 1.977456816274e+002 1.980363295556e+002 1.977457020065e+002 1.980438835185e+002 1.969532721611e+002 1.967967387006e+002 1.971310674133e+002 1.972043422100e+002 1.977320937770e+002 1.975057344651e+002 1.977127786470e+002 1.974446542608e+002 1.973780837853e+002 1.973065814573e+002 1.972331048961e+002 1.975607443712e+002 1.976858169244e+002 1.976516822898e+002 1.976100158555e+002 1.969283257156e+002 1.970185249532e+002 1.975608878315e+002 1.976094393809e+002 1.976511967723e+002 1.976857393182e+002 1.973065631161e+002 1.973780660250e+002 1.974446368078e+002 1.977127786754e+002 1.975058844210e+002 1.977320910934e+002 1.971043013084e+002 1.970195961718e+002 1.969284160807e+002 1.968259708855e+002 1.977428241650e+002 1.977429007343e+002 1.972262599038e+002 1.968341527592e+002 1.972385501687e+002 1.970952114590e+002 1.977462945745e+002 1.985103495443e+002 1.968038363199e+002 1.973093003175e+002 1.968010588889e+002 1.971619257525e+002 1.971377156614e+002 1.971992765249e+002 1.969347392715e+002 1.967920929238e+002 1.971687889857e+002 1.977398727708e+002 1.976737829365e+002 1.976964138389e+002 1.976365266005e+002 1.977206743034e+002 1.975921726275e+002 1.974831302078e+002 1.973513757212e+002 1.972781496555e+002 1.974205574395e+002 1.968922925561e+002 1.970514917371e+002 1.969635503171e+002 1.975268952916e+002 1.971685288423e+002 1.977465555789e+002 1.988801709529e+002 1.977465555667e+002 1.988629763561e+002 1.974876714242e+002 1.974248547251e+002 1.973567159197e+002 1.972838239233e+002 1.975763859780e+002 1.975229118070e+002 1.975446390301e+002 1.976229503438e+002 1.970787889309e+002 1.976625358673e+002 1.969927261619e+002 1.976948106122e+002 1.968979162195e+002 1.977195079280e+002 1.977193937065e+002 1.977271985127e+002 1.976946523877e+002 1.977053945519e+002 1.976620567299e+002 1.976757780651e+002 1.976223753107e+002 1.976389575539e+002 1.969002286124e+002 1.975949810184e+002 1.975763658895e+002 1.969939888948e+002 1.969580704388e+002 1.972838789995e+002 1.973571263361e+002 1.974256054541e+002 1.973292979033e+002 1.973992886547e+002 1.974872885260e+002 1.974642506159e+002 1.970494440988e+002 1.975446594569e+002 1.975244331144e+002 1.977270182126e+002 1.968573969555e+002 1.977047601005e+002 1.969594221665e+002 1.976752555445e+002 1.970477306657e+002 1.976383186868e+002 1.972525823374e+002 1.973278893285e+002 1.973980148652e+002 1.974628820403e+002 1.975942756169e+002 1.968099765163e+002 1.977363115055e+002 1.977362281112e+002 1.972064953353e+002 1.971285660582e+002 1.968005865085e+002 1.975439745468e+002 1.973995723526e+002 1.974646616377e+002 1.973297772139e+002 1.972528054452e+002 1.968586731132e+002 1.969916766207e+002 1.977268593643e+002 1.970780668948e+002 1.977050073413e+002 1.976629780942e+002 1.975770019833e+002 1.976234806012e+002 1.968630762482e+002 1.977404008974e+002 1.977404006026e+002 1.971865226321e+002 1.969724360535e+002 1.977364882783e+002 1.975502316772e+002 1.975712547941e+002 1.976185016728e+002 1.970866715370e+002 1.976588180811e+002 1.970018154265e+002 1.973215123206e+002 1.973920568042e+002 1.974575541403e+002 1.977286605736e+002 1.968477165977e+002 1.977079018285e+002 1.967908629901e+002 1.972482627031e+002 1.977448839748e+002 1.977447835024e+002 1.977349647829e+002 1.972596831045e+002 1.970729953975e+002 1.972153129437e+002 1.971202643805e+002 1.976830684154e+002 1.968086367863e+002 1.970677072314e+002 1.968753302044e+002 1.968093910115e+002 1.974927333306e+002 1.974305389367e+002 1.973628393811e+002 1.972903367395e+002 1.976923926318e+002 1.969065466662e+002 1.977177418373e+002 1.975177273752e+002 1.975994067290e+002 1.976920087453e+002 1.976430904615e+002 1.977174552795e+002 1.976791597570e+002 1.974937457786e+002 1.974305129983e+002 1.973635749882e+002 1.972911195120e+002 1.969080295104e+002 1.970384606434e+002 1.969484506290e+002 1.969483739916e+002 1.976791566879e+002 1.970375825632e+002 1.976430832506e+002 1.975998651258e+002 1.975177214111e+002 1.977465972635e+002 1.977466214651e+002 1.989461558458e+002 1.988771845755e+002 1.977450678234e+002 1.977431163946e+002 1.977417233910e+002 1.977419506297e+002 1.974840622771e+002 1.977442591966e+002 1.971698850712e+002 1.977772120687e+002 1.971172594503e+002 1.972187365192e+002 1.968160374642e+002 1.970531121372e+002 1.971092535731e+002 1.967883170961e+002 1.967905399763e+002 1.972265545423e+002 1.968333634143e+002 1.971387730253e+002 1.971852794016e+002 1.968497335726e+002 1.969979505823e+002 1.975738668727e+002 1.976204337189e+002 1.976604346522e+002 1.977072301558e+002 1.977283607516e+002 1.975473586099e+002 1.972496507438e+002 1.973244172082e+002 1.973947718979e+002 1.974600554348e+002 1.971511672911e+002 1.967892221724e+002 1.971876499599e+002 1.971480063498e+002 1.977354579853e+002 1.977439533603e+002 1.968520361321e+002 1.970810463852e+002 1.975409990729e+002 1.979319437284e+002 1.977455025744e+002 1.968392775895e+002 1.975011701342e+002 1.974396394883e+002 1.973726636188e+002 1.973008011056e+002 1.975643303882e+002 1.975572719003e+002 1.975103902298e+002 1.976129524813e+002 1.976541575493e+002 1.970978077830e+002 1.976881233689e+002 1.970127824929e+002 1.977145659418e+002 1.969207382602e+002 1.977309161442e+002 1.977144528933e+002 1.976881932243e+002 1.976543233506e+002 1.976131490458e+002 1.969207739583e+002 1.970124438930e+002 1.973011874465e+002 1.973725852460e+002 1.974395670979e+002 1.977308621256e+002 1.968336838387e+002 1.972373469361e+002 1.977322580694e+002 1.977423455234e+002 1.977423466044e+002 1.968409959224e+002 1.968061113630e+002 1.971538453354e+002 1.971810475299e+002 1.977249188337e+002 1.977023334131e+002 1.976666272551e+002 1.976278667241e+002 1.975814664403e+002 1.968697143926e+002 1.969824737957e+002 1.970691238981e+002 1.974713331033e+002 1.973375558241e+002 1.972635794846e+002 1.974058812229e+002 1.975390943482e+002 1.977376858509e+002 1.977458791881e+002 1.977458796847e+002 1.977122112417e+002 1.976520687389e+002 1.976104738588e+002 1.970176364683e+002 1.973083717120e+002 1.973797612252e+002 1.974462044110e+002 1.981783898459e+002 1.971562654428e+002 1.975621997632e+002 1.975594710284e+002 1.972328499499e+002 1.977467852009e+002 1.992969140620e+002 1.970895076462e+002 1.972448157130e+002 1.975857043744e+002 1.976309773578e+002 1.976692054163e+002 1.977234111143e+002 1.977002212481e+002 1.970628700400e+002 1.969757566343e+002 1.968778103871e+002 1.974120208500e+002 1.974759146154e+002 1.972691659238e+002 1.973429122453e+002 1.977234094415e+002 1.977002127354e+002 1.973429102256e+002 1.974121843251e+002 1.976693878191e+002 1.974759930126e+002 1.976311985075e+002 1.975860275464e+002 1.969753737808e+002 1.975343486808e+002 1.975340555270e+002 1.967907783493e+002 1.971204822677e+002 1.967980312333e+002 1.972538206465e+002 1.971714191614e+002 1.977408145850e+002 1.977406739810e+002 1.972024582875e+002 1.972088555576e+002 1.971767097832e+002 1.975676724122e+002 1.974979415729e+002 1.975134249785e+002 1.975538502875e+002 1.974531116093e+002 1.973872407363e+002 1.973163612393e+002 1.976033577673e+002 1.969413856866e+002 1.970311434813e+002 1.977098484210e+002 1.976815700081e+002 1.976460495524e+002 1.977096236065e+002 1.969412030877e+002 1.976815713261e+002 1.970311075913e+002 1.973163619691e+002 1.973872415312e+002 1.974518571540e+002 1.976460504469e+002 1.976033582103e+002 1.982809277208e+002 1.970292163268e+002 1.977459775105e+002 1.982454628050e+002 1.975060383669e+002 1.975054304453e+002 1.969281599754e+002 1.969279490483e+002 1.976858991618e+002 1.976858622245e+002 1.977446033276e+002 1.968276316506e+002 1.974273671888e+002 1.968348341759e+002 1.968019295690e+002 1.977468005735e+002 1.993651233569e+002 1.977468103232e+002 1.993215333988e+002 1.969042270600e+002 1.977339930776e+002 1.977340320862e+002 1.976092580828e+002 1.976510436525e+002 1.970199547789e+002 1.974442528270e+002 1.973061181553e+002 1.973776488245e+002 1.977128119716e+002 1.967949202108e+002 1.967970692724e+002 1.970812211595e+002 1.972209180928e+002 1.971148306729e+002 1.970954736201e+002 1.968139834252e+002 1.968816647671e+002 1.971362537589e+002 1.968029642359e+002 1.977384095766e+002 1.977384098139e+002 1.971275784343e+002 1.972125250137e+002 1.977362288177e+002 1.970953845803e+002 1.972145497070e+002 1.972014308723e+002 1.977051469164e+002 1.968576040658e+002 1.977269939242e+002 1.973216169298e+002 1.973919779353e+002 1.974576440719e+002 1.975506880409e+002 1.969931946169e+002 1.976623496747e+002 1.970791114655e+002 1.976227271419e+002 1.975707072066e+002 1.977320325314e+002 1.967904597230e+002 1.971866928144e+002 1.971593062222e+002 1.971039590396e+002 1.968924102368e+002 1.977468255738e+002 1.994120726532e+002 1.977468261676e+002 1.994597261052e+002 1.975765461847e+002 1.968267833311e+002 1.971667600776e+002 1.971366184946e+002 1.977446857620e+002 1.970581258069e+002 1.972723030714e+002 1.967958904396e+002 1.972224432341e+002 1.968274411305e+002 1.975947676526e+002 1.976387385983e+002 1.976755999539e+002 1.970468407228e+002 1.969584644757e+002 1.976795026882e+002 1.977172502290e+002 1.976435121912e+002 1.976917438827e+002 1.976003725916e+002 1.969474395150e+002 1.970366703744e+002 1.969090168668e+002 1.972917986139e+002 1.974319249154e+002 1.973641920778e+002 1.974941344920e+002 1.977193192929e+002 1.976945538313e+002 1.968988740826e+002 1.975238424278e+002 1.972830078745e+002 1.973559477945e+002 1.974241411584e+002 1.974870178350e+002 1.975172222630e+002 1.975340567225e+002 1.974759102258e+002 1.973429094621e+002 1.974120204375e+002 1.972691645014e+002 1.977234123734e+002 1.977002133212e+002 1.976694596393e+002 1.975859642041e+002 1.976312849766e+002 1.968782153154e+002 1.969751494354e+002 1.970624198562e+002 1.971137108512e+002 1.968108239278e+002 1.977445393969e+002 1.975691020465e+002 1.975162586608e+002 1.974950111420e+002 1.974327399091e+002 1.973652150109e+002 1.972928656854e+002 1.976910896429e+002 1.977167887186e+002 1.969110047229e+002 1.976799774041e+002 1.976439818017e+002 1.976008636839e+002 1.969459782084e+002 1.970357452530e+002 1.971646371913e+002 1.977386244286e+002 1.971553760192e+002 1.977398252610e+002 1.975330081248e+002 1.975347354183e+002 1.974777929700e+002 1.974140391905e+002 1.973451137930e+002 1.972715025240e+002 1.977230438417e+002 1.976996981794e+002 1.976684765156e+002 1.976300973841e+002 1.975868838845e+002 1.969777481518e+002 1.975853647198e+002 1.973442681014e+002 1.974107556749e+002 1.974770719121e+002 1.976308104174e+002 1.976690668980e+002 1.970632058397e+002 1.977002606223e+002 1.969761224582e+002 1.977234451817e+002 1.968776570412e+002 1.968038929639e+002 1.976969558250e+002 1.968902536302e+002 1.977210684123e+002 1.973508534308e+002 1.974826860750e+002 1.974199104746e+002 1.972775948922e+002 1.969653567600e+002 1.976731057982e+002 1.970531842546e+002 1.976357047524e+002 1.975910842709e+002 1.975281709957e+002 1.973480609185e+002 1.977468135289e+002 1.993715055811e+002 1.977415244821e+002 1.977437899320e+002 1.977437888531e+002 1.971527824835e+002 1.971841380853e+002 1.967928214897e+002 1.968803525629e+002 1.977350682184e+002 1.973789946707e+002 1.977384002093e+002 1.977383533605e+002 1.968228630814e+002 1.975704442594e+002 1.976179056842e+002 1.970880930141e+002 1.976583188495e+002 1.970030220109e+002 1.974582863521e+002 1.973920666082e+002 1.973223637395e+002 1.975505643034e+002 1.977290093926e+002 1.968442156608e+002 1.977082381923e+002 1.971035251135e+002 1.972318832536e+002 1.971450490208e+002 1.969293501325e+002 1.971564552731e+002 1.977463690541e+002 1.986270001092e+002 1.977463688790e+002 1.985900061687e+002 1.972730349879e+002 1.970584640209e+002 1.972446822643e+002 1.968717020166e+002 1.977299405597e+002 1.982344920266e+002 1.971300070237e+002 1.971961449299e+002 1.971431427845e+002 1.967912799230e+002 1.969028350444e+002 1.967989751826e+002 1.970762287801e+002 1.969034336560e+002 1.967916812842e+002 1.971503237988e+002 1.972291206733e+002 1.970034809752e+002 1.971750933549e+002 1.971233351786e+002 1.971985415648e+002 1.971349360911e+002 1.977428956877e+002 1.977138767462e+002 1.968539162512e+002 1.975400605655e+002 1.975534283205e+002 1.977298728424e+002 1.977095343483e+002 1.977257440633e+002 1.977033327370e+002 1.976584477682e+002 1.976180583793e+002 1.970027624381e+002 1.975805979644e+002 1.975680826911e+002 1.972588704332e+002 1.972431987633e+002 1.973333220319e+002 1.973171080279e+002 1.973879394353e+002 1.974030972868e+002 1.974676726993e+002 1.974537295731e+002 1.980116392442e+002 1.977456476253e+002 1.977456361726e+002 1.977463189190e+002 1.977463192297e+002 1.983456765160e+002 1.977461348249e+002 1.974888226318e+002 1.974261130236e+002 1.973580704209e+002 1.972852634809e+002 1.975221377922e+002 1.975456749214e+002 1.975754334198e+002 1.976221268819e+002 1.970803973268e+002 1.976618495461e+002 1.969944291522e+002 1.976942678617e+002 1.968998545853e+002 1.977191125405e+002 1.977191067276e+002 1.976942594439e+002 1.977273736390e+002 1.976618175595e+002 1.976220887068e+0