<?xml version="1.0"?>
<VTKFile type="UnstructuredGrid" version="0.1" byte_order="LittleEndian">
  <UnstructuredGrid>
    <Piece NumberOfPoints="2604" NumberOfCells="4910">
      <Points>
        <DataArray type="Float64" NumberOfComponents="3" format="ascii">
          0.000000000000e+000 0.000000000000e+000 0.000000000000e+000
          2.000000000000e+002 0.000000000000e+000 0.000000000000e+000
          2.000000000000e+002 2.000000000000e+001 0.000000000000e+000
          0.000000000000e+000 2.000000000000e+001 0.000000000000e+000
          1.492537313427e+000 0.000000000000e+000 0.000000000000e+000
          2.985074626854e+000 0.000000000000e+000 0.000000000000e+000
          4.477611940281e+000 0.000000000000e+000 0.000000000000e+000
          5.970149253708e+000 0.000000000000e+000 0.000000000000e+000
          7.462686567135e+000 0.000000000000e+000 0.000000000000e+000
          8.955223880561e+000 0.000000000000e+000 0.000000000000e+000
          1.044776119399e+001 0.000000000000e+000 0.000000000000e+000
          1.194029850741e+001 0.000000000000e+000 0.000000000000e+000
          1.343283582084e+001 0.000000000000e+000 0.000000000000e+000
          1.492537313427e+001 0.000000000000e+000 0.000000000000e+000
          1.641791044770e+001 0.000000000000e+000 0.000000000000e+000
          1.791044776112e+001 0.000000000000e+000 0.000000000000e+000
          1.940298507455e+001 0.000000000000e+000 0.000000000000e+000
          2.089552238798e+001 0.000000000000e+000 0.000000000000e+000
          2.238805970141e+001 0.000000000000e+000 0.000000000000e+000
          2.388059701484e+001 0.000000000000e+000 0.000000000000e+000
          2.537313432826e+001 0.000000000000e+000 0.000000000000e+000
          2.686567164169e+001 0.000000000000e+000 0.000000000000e+000
          2.835820895511e+001 0.000000000000e+000 0.000000000000e+000
          2.985074626854e+001 0.000000000000e+000 0.000000000000e+000
          3.134328358196e+001 0.000000000000e+000 0.000000000000e+000
          3.283582089539e+001 0.000000000000e+000 0.000000000000e+000
          3.432835820881e+001 0.000000000000e+000 0.000000000000e+000
          3.582089552224e+001 0.000000000000e+000 0.000000000000e+000
          3.731343283566e+001 0.000000000000e+000 0.000000000000e+000
          3.880597014909e+001 0.000000000000e+000 0.000000000000e+000
          4.029850746251e+001 0.000000000000e+000 0.000000000000e+000
          4.179104477594e+001 0.000000000000e+000 0.000000000000e+000
          4.328358208936e+001 0.000000000000e+000 0.000000000000e+000
          4.477611940279e+001 0.000000000000e+000 0.000000000000e+000
          4.626865671621e+001 0.000000000000e+000 0.000000000000e+000
          4.776119402964e+001 0.000000000000e+000 0.000000000000e+000
          4.925373134306e+001 0.000000000000e+000 0.000000000000e+000
          5.074626865649e+001 0.000000000000e+000 0.000000000000e+000
          5.223880596991e+001 0.000000000000e+000 0.000000000000e+000
          5.373134328334e+001 0.000000000000e+000 0.000000000000e+000
          5.522388059676e+001 0.000000000000e+000 0.000000000000e+000
          5.671641791019e+001 0.000000000000e+000 0.000000000000e+000
          5.820895522361e+001 0.000000000000e+000 0.000000000000e+000
          5.970149253704e+001 0.000000000000e+000 0.000000000000e+000
          6.119402985046e+001 0.000000000000e+000 0.000000000000e+000
          6.268656716389e+001 0.000000000000e+000 0.000000000000e+000
          6.417910447732e+001 0.000000000000e+000 0.000000000000e+000
          6.567164179075e+001 0.000000000000e+000 0.000000000000e+000
          6.716417910418e+001 0.000000000000e+000 0.000000000000e+000
          6.865671641761e+001 0.000000000000e+000 0.000000000000e+000
          7.014925373104e+001 0.000000000000e+000 0.000000000000e+000
          7.164179104447e+001 0.000000000000e+000 0.000000000000e+000
          7.313432835790e+001 0.000000000000e+000 0.000000000000e+000
          7.462686567133e+001 0.000000000000e+000 0.000000000000e+000
          7.611940298476e+001 0.000000000000e+000 0.000000000000e+000
          7.761194029819e+001 0.000000000000e+000 0.000000000000e+000
          7.910447761162e+001 0.000000000000e+000 0.000000000000e+000
          8.059701492505e+001 0.000000000000e+000 0.000000000000e+000
          8.208955223848e+001 0.000000000000e+000 0.000000000000e+000
          8.358208955191e+001 0.000000000000e+000 0.000000000000e+000
          8.507462686534e+001 0.000000000000e+000 0.000000000000e+000
          8.656716417877e+001 0.000000000000e+000 0.000000000000e+000
          8.805970149220e+001 0.000000000000e+000 0.000000000000e+000
          8.955223880563e+001 0.000000000000e+000 0.000000000000e+000
          9.104477611907e+001 0.000000000000e+000 0.000000000000e+000
          9.253731343250e+001 0.000000000000e+000 0.000000000000e+000
          9.402985074593e+001 0.000000000000e+000 0.000000000000e+000
          9.552238805936e+001 0.000000000000e+000 0.000000000000e+000
          9.701492537279e+001 0.000000000000e+000 0.000000000000e+000
          9.850746268622e+001 0.000000000000e+000 0.000000000000e+000
          9.999999999965e+001 0.000000000000e+000 0.000000000000e+000
          1.014925373131e+002 0.000000000000e+000 0.000000000000e+000
          1.029850746265e+002 0.000000000000e+000 0.000000000000e+000
          1.044776119399e+002 0.000000000000e+000 0.000000000000e+000
          1.059701492534e+002 0.000000000000e+000 0.000000000000e+000
          1.074626865668e+002 0.000000000000e+000 0.000000000000e+000
          1.089552238802e+002 0.000000000000e+000 0.000000000000e+000
          1.104477611937e+002 0.000000000000e+000 0.000000000000e+000
          1.119402985071e+002 0.000000000000e+000 0.000000000000e+000
          1.134328358205e+002 0.000000000000e+000 0.000000000000e+000
          1.149253731340e+002 0.000000000000e+000 0.000000000000e+000
          1.164179104474e+002 0.000000000000e+000 0.000000000000e+000
          1.179104477608e+002 0.000000000000e+000 0.000000000000e+000
          1.194029850742e+002 0.000000000000e+000 0.000000000000e+000
          1.208955223877e+002 0.000000000000e+000 0.000000000000e+000
          1.223880597011e+002 0.000000000000e+000 0.000000000000e+000
          1.238805970145e+002 0.000000000000e+000 0.000000000000e+000
          1.253731343280e+002 0.000000000000e+000 0.000000000000e+000
          1.268656716414e+002 0.000000000000e+000 0.000000000000e+000
          1.283582089548e+002 0.000000000000e+000 0.000000000000e+000
          1.298507462683e+002 0.000000000000e+000 0.000000000000e+000
          1.313432835817e+002 0.000000000000e+000 0.000000000000e+000
          1.328358208952e+002 0.000000000000e+000 0.000000000000e+000
          1.343283582086e+002 0.000000000000e+000 0.000000000000e+000
          1.358208955220e+002 0.000000000000e+000 0.000000000000e+000
          1.373134328355e+002 0.000000000000e+000 0.000000000000e+000
          1.388059701489e+002 0.000000000000e+000 0.000000000000e+000
          1.402985074624e+002 0.000000000000e+000 0.000000000000e+000
          1.417910447758e+002 0.000000000000e+000 0.000000000000e+000
          1.432835820892e+002 0.000000000000e+000 0.000000000000e+000
          1.447761194027e+002 0.000000000000e+000 0.000000000000e+000
          1.462686567161e+002 0.000000000000e+000 0.000000000000e+000
          1.477611940296e+002 0.000000000000e+000 0.000000000000e+000
          1.492537313430e+002 0.000000000000e+000 0.000000000000e+000
          1.507462686564e+002 0.000000000000e+000 0.000000000000e+000
          1.522388059699e+002 0.000000000000e+000 0.000000000000e+000
          1.537313432833e+002 0.000000000000e+000 0.000000000000e+000
          1.552238805968e+002 0.000000000000e+000 0.000000000000e+000
          1.567164179102e+002 0.000000000000e+000 0.000000000000e+000
          1.582089552237e+002 0.000000000000e+000 0.000000000000e+000
          1.597014925371e+002 0.000000000000e+000 0.000000000000e+000
          1.611940298505e+002 0.000000000000e+000 0.000000000000e+000
          1.626865671640e+002 0.000000000000e+000 0.000000000000e+000
          1.641791044774e+002 0.000000000000e+000 0.000000000000e+000
          1.656716417909e+002 0.000000000000e+000 0.000000000000e+000
          1.671641791043e+002 0.000000000000e+000 0.000000000000e+000
          1.686567164177e+002 0.000000000000e+000 0.000000000000e+000
          1.701492537312e+002 0.000000000000e+000 0.000000000000e+000
          1.716417910446e+002 0.000000000000e+000 0.000000000000e+000
          1.731343283581e+002 0.000000000000e+000 0.000000000000e+000
          1.746268656715e+002 0.000000000000e+000 0.000000000000e+000
          1.761194029849e+002 0.000000000000e+000 0.000000000000e+000
          1.776119402984e+002 0.000000000000e+000 0.000000000000e+000
          1.791044776118e+002 0.000000000000e+000 0.000000000000e+000
          1.805970149253e+002 0.000000000000e+000 0.000000000000e+000
          1.820895522387e+002 0.000000000000e+000 0.000000000000e+000
          1.835820895521e+002 0.000000000000e+000 0.000000000000e+000
          1.850746268656e+002 0.000000000000e+000 0.000000000000e+000
          1.865671641790e+002 0.000000000000e+000 0.000000000000e+000
          1.880597014925e+002 0.000000000000e+000 0.000000000000e+000
          1.895522388059e+002 0.000000000000e+000 0.000000000000e+000
          1.910447761194e+002 0.000000000000e+000 0.000000000000e+000
          1.925373134328e+002 0.000000000000e+000 0.000000000000e+000
          1.940298507462e+002 0.000000000000e+000 0.000000000000e+000
          1.955223880597e+002 0.000000000000e+000 0.000000000000e+000
          1.970149253731e+002 0.000000000000e+000 0.000000000000e+000
          1.985074626866e+002 0.000000000000e+000 0.000000000000e+000
          2.000000000000e+002 1.428571428570e+000 0.000000000000e+000
          2.000000000000e+002 2.857142857140e+000 0.000000000000e+000
[...]
      <PointData Scalars="MEAN_PRESSURE">
        <DataArray type="Float64" Name="MEAN_PRESSURE" format="ascii">
          2.000000000000e+002 1.990324599990e+002 1.990324585516e+002 2.000000000000e+002 1.995162363489e+002 1.985342654302e+002 1.978644004357e+002 1.973908822526e+002 1.970724955937e+002 1.968733491544e+002 1.967548087304e+002 1.966954937734e+002 1.966746166087e+002 1.966784646303e+002 1.966966709549e+002 1.967231530614e+002 1.967536627732e+002 1.967857856205e+002 1.968182179065e+002 1.968503366285e+002 1.968819345007e+002 1.969129452180e+002 1.969434818467e+002 1.969736449205e+002 1.970035277584e+002 1.970331999209e+002 1.970627208969e+002 1.970921269481e+002 1.971214380697e+002 1.971506689768e+002 1.971798250271e+002 1.972089088109e+002 1.972379157923e+002 1.972668438878e+002 1.972956882600e+002 1.973244428553e+002 1.973531044959e+002 1.973816651705e+002 1.974101215317e+002 1.974384695317e+002 1.974667005724e+002 1.974948076619e+002 1.975227913729e+002 1.975506430375e+002 1.975783597481e+002 1.976059353565e+002 1.976333678935e+002 1.976606440251e+002 1.976877709425e+002 1.977147341397e+002 1.977415310645e+002 1.977681590411e+002 1.977946168974e+002 1.978208862273e+002 1.978469766156e+002 1.978728793703e+002 1.978985921866e+002 1.979241034915e+002 1.979494119719e+002 1.979745244568e+002 1.979994159166e+002 1.980240940471e+002 1.980485535784e+002 1.980727945892e+002 1.980968066928e+002 1.981205877271e+002 1.981441344973e+002 1.981674405418e+002 1.981905063878e+002 1.982133225416e+002 1.982358935114e+002 1.982582052413e+002 1.982802625248e+002 1.983020572266e+002 1.983235857395e+002 1.983448486309e+002 1.983658363986e+002 1.983865540754e+002 1.984069907702e+002 1.984271468953e+002 1.984470138797e+002 1.984665976148e+002 1.984858870707e+002 1.985048850581e+002 1.985235838638e+002 1.985419819875e+002 1.985600786352e+002 1.985778690920e+002 1.985953507322e+002 1.986125215157e+002 1.986293787592e+002 1.986459204604e+002 1.986621442574e+002 1.986780453077e+002 1.986936197223e+002 1.987088724028e+002 1.987237932258e+002 1.987383841316e+002 1.987526434017e+002 1.987665700585e+002 1.987801586019e+002 1.987934053649e+002 1.988063158136e+002 1.988188797596e+002 1.988310997400e+002 1.988429745045e+002 1.988545035493e+002 1.988656816307e+002 1.988765054056e+002 1.988869809792e+002 1.988970981781e+002 1.989068598603e+002 1.989162659857e+002 1.989253172473e+002 1.989340063319e+002 1.989423311885e+002 1.989502990573e+002 1.989578995709e+002 1.989651360147e+002 1.989720083394e+002 1.989785179653e+002 1.989846603114e+002 1.989904315544e+002 1.989958339568e+002 1.990008662729e+002 1.990055250385e+002 1.990098173059e+002 1.990137422453e+002 1.990172893442e+002 1.990204719143e+002 1.990232867122e+002 1.990257092521e+002 1.990277643581e+002 1.990294474860e+002 1.990307776956e+002 1.990316765148e+002 1.990322550474e+002 1.990324399774e+002 1.990324213339e+002 1.990324618228e+002 1.990324536985e+002 1.990324497169e+002 1.990324424109e+002 1.990324376164e+002 1.990324409406e+002 1.990324413241e+002 1.990324321803e+002 1.990324574492e+002 1.990324190368e+002 1.990324383797e+002 1.990322537435e+002 1.990316754790e+002 1.990307767992e+002 1.990294466016e+002 1.990277636753e+002 1.990257097549e+002 1.990232883627e+002 1.990204737986e+002 1.990172911074e+002 1.990137438849e+002 1.990098177015e+002 1.990055257282e+002 1.990008660528e+002 1.989958327621e+002 1.989904306686e+002 1.989846585380e+002 1.989785157550e+002 1.989720130734e+002 1.989651398970e+002 1.989579005559e+002 1.989502988176e+002 1.989423323477e+002 1.989340032569e+002 1.989253167280e+002 1.989162686060e+002 1.989068633943e+002 1.988970981543e+002 1.988869798810e+002 1.988765033461e+002 1.988656804205e+002 1.988545019136e+002 1.988429751302e+002 1.988311009237e+002 1.988188773875e+002 1.988063142765e+002 1.987934038543e+002 1.987801581848e+002 1.987665691228e+002 1.987526442973e+002 1.987383851283e+002 1.987237906850e+002 1.987088709519e+002 1.986936187308e+002 1.986780454635e+002 1.986621440365e+002 1.986459185287e+002 1.986293796233e+002 1.986125221249e+002 1.985953510273e+002 1.985778691001e+002 1.985600795554e+002 1.985419851678e+002 1.985235864496e+002 1.985048848885e+002 1.984858900925e+002 1.984665977896e+002 1.984470145357e+002 1.984271441858e+002 1.984069918254e+002 1.983865538139e+002 1.983658394256e+002 1.983448498490e+002 1.983235866804e+002 1.983020555060e+002 1.982802607345e+002 1.982582062573e+002 1.982358925088e+002 1.982133245102e+002 1.981905053342e+002 1.981674404523e+002 1.981441325607e+002 1.981205865749e+002 1.980968069461e+002 1.980727949219e+002 1.980485558181e+002 1.980240931686e+002 1.979994126228e+002 1.979745173316e+002 1.979494123000e+002 1.979241030047e+002 1.978985909489e+002 1.978728813659e+002 1.978469780014e+002 1.978208868789e+002 1.977946113558e+002 1.977681573449e+002 1.977415291460e+002 1.977147276758e+002 1.976877658506e+002 1.976606428206e+002 1.976333622366e+002 1.976059327230e+002 1.975783532734e+002 1.975506331431e+002 1.975227784505e+002 1.974947907838e+002 1.974666763331e+002 1.974384407140e+002 1.974100875969e+002 1.973816213678e+002 1.973530492065e+002 1.973243731431e+002 1.972955991000e+002 1.972667314419e+002 1.972377741934e+002 1.972087292458e+002 1.971795981994e+002 1.971503819844e+002 1.971210740018e+002 1.970916658982e+002 1.970621398491e+002 1.970324670952e+002 1.970026001619e+002 1.969724724218e+002 1.969419942479e+002 1.969110532036e+002 1.968795324345e+002 1.968473244115e+002 1.968144430005e+002 1.967810405729e+002 1.967477293079e+002 1.967157872462e+002 1.966875998059e+002 1.966670281012e+002 1.966612109762e+002 1.966799335182e+002 1.967376432248e+002 1.968513579153e+002 1.970526007341e+002 1.973730779050e+002 1.978448329437e+002 1.985215737388e+002 1.994997685045e+002 2.000000000000e+002 2.000000000000e+002 2.000000000000e+002 2.000000000000e+002 2.000000000000e+002 2.000000000000e+002 2.000000000000e+002 2.000000000000e+002 2.000000000000e+002 2.000000000000e+002 2.000000000000e+002 2.000000000000e+002 2.000000000000e+002 1.990240250775e+002 1.967799484298e+002 1.989985551876e+002 1.989542887256e+002 1.988914444067e+002 1.988118480954e+002 1.987154329627e+002 1.969274100555e+002 1.986039684596e+002 1.971377244016e+002 1.973405467253e+002 1.975401937558e+002 1.978317284991e+002 1.980117751683e+002 1.981789974160e+002 1.983342446238e+002 1.984762713825e+002 1.967375273958e+002 1.976877695196e+002 1.985419780015e+002 1.985411393862e+002 1.984069912616e+002 1.982582056166e+002 1.980968074763e+002 1.979241044266e+002 1.989794753308e+002 1.989266577993e+002 1.988558260875e+002 1.979241005710e+002 1.980925167311e+002 1.982599951220e+002 1.984033438693e+002 1.987681770762e+002 1.986621380396e+002 1.970315428230e+002 1.972344700259e+002 1.974416479447e+002 1.986628890370e+002 1.987667020811e+002 1.988546113384e+002 1.989253079028e+002 1.989785087074e+002 1.974381570192e+002 1.972375107758e+002 1.970326287062e+002 1.990133501214e+002 1.990131145073e+002 1.976294502075e+002 1.977486706404e+002 1.966697195676e+002 1.968196276189e+002 1.990295028976e+002 1.973848903894e+002 1.990295495201e+002 1.973862121843e+002 1.966706369062e+002 1.968455572993e+002 1.975996620808e+002 1.977719435287e+002 1.989984008877e+002 1.984762738844e+002 1.989541385310e+002 1.983342512365e+002 1.981790039050e+002 1.980117801773e+002 1.978394932960e+002 1.986038026727e+002 1.988922558341e+002 1.988137521701e+002 1.987176975564e+002 1.971354733510e+002 1.973362213140e+002 1.986041347344e+002 1.987163668388e+002 1.988126343266e+002 1.988920776066e+002 1.980117367416e+002 1.981789620398e+002 1.983342102138e+002 1.989541385909e+002 1.984766218883e+002 1.989983947290e+002 1.975367254486e+002 1.973387307043e+002 1.971357843848e+002 1.969268210383e+002 1.990229647661e+002 1.990231399819e+002 1.967335046100e+002 1.969439006409e+002 1.978522746818e+002 1.975153547351e+002 1.990309052017e+002 1.979203728089e+002 1.967408428301e+002 1.967881844648e+002 1.967352877793e+002 1.976722388421e+002 1.976153008409e+002 1.977600413211e+002 1.966674397172e+002 1.968246118155e+002 1.976883796525e+002 1.990162103184e+002 1.988645996330e+002 1.989165912297e+002 1.987788419690e+002 1.989722392147e+002 1.986764888725e+002 1.984237643074e+002 1.981165952716e+002 1.979451630782e+002 1.982781078642e+002 1.970613341047e+002 1.974128708929e+002 1.972116540753e+002 1.985253747637e+002 1.976877673390e+002 1.990315023114e+002 1.983913317464e+002 1.990315022845e+002 1.983654930197e+002 1.984343183108e+002 1.982881246949e+002 1.981290789906e+002 1.979584634031e+002 1.986399943364e+002 1.985161361671e+002 1.985665048489e+002 1.987475418865e+002 1.974768037058e+002 1.988387321871e+002 1.972771335219e+002 1.989129106104e+002 1.970728126048e+002 1.989695659421e+002 1.989693041921e+002 1.989871885232e+002 1.989125474485e+002 1.989372016537e+002 1.988376298972e+002 1.988691862043e+002 1.987462157200e+002 1.987844436129e+002 1.970772652072e+002 1.986829778145e+002 1.986399478490e+002 1.972799330458e+002 1.971995426299e+002 1.979585929545e+002 1.981300385856e+002 1.982898745107e+002 1.980649567056e+002 1.982285039026e+002 1.984334285704e+002 1.983798620423e+002 1.974080736141e+002 1.985665521313e+002 1.985196647543e+002 1.989867755048e+002 1.969918631978e+002 1.989357460611e+002 1.972026080724e+002 1.988679851083e+002 1.974040981401e+002 1.987829716220e+002 1.978852038459e+002 1.980616611436e+002 1.982255319752e+002 1.983766783956e+002 1.986813481561e+002 1.967235373424e+002 1.990080582469e+002 1.990078673224e+002 1.977770027016e+002 1.975937833345e+002 1.968623438845e+002 1.985649653129e+002 1.982291657587e+002 1.983808181289e+002 1.980660781644e+002 1.978857269374e+002 1.969941871696e+002 1.972747072925e+002 1.989864115832e+002 1.974751008122e+002 1.989363133111e+002 1.988397496619e+002 1.986414190395e+002 1.987487649405e+002 1.970027944285e+002 1.990174190705e+002 1.990174183940e+002 1.977300676418e+002 1.966612798645e+002 1.990084629466e+002 1.985794606037e+002 1.986281253348e+002 1.987372800087e+002 1.974953016760e+002 1.988301775672e+002 1.972978306447e+002 1.980467367317e+002 1.982116271119e+002 1.983642808156e+002 1.989905377298e+002 1.969722937195e+002 1.989429536014e+002 1.968027349164e+002 1.978750681709e+002 1.990276779322e+002 1.990274480486e+002 1.990049749730e+002 1.979018608256e+002 1.974631981615e+002 1.977977149101e+002 1.975742576944e+002 1.970443981499e+002 1.968851792875e+002 1.966765229300e+002 1.966844674329e+002 1.968858682646e+002 1.984460797725e+002 1.983013715640e+002 1.981433906666e+002 1.979737261656e+002 1.989073588628e+002 1.970902959896e+002 1.989655177951e+002 1.985041091911e+002 1.986932017021e+002 1.989064774301e+002 1.987939657165e+002 1.989648609544e+002 1.988769593437e+002 1.984484318258e+002 1.983013112320e+002 1.981451095507e+002 1.979755601270e+002 1.970932243387e+002 1.973824632366e+002 1.971785403736e+002 1.971784447469e+002 1.988769522265e+002 1.973804398546e+002 1.987939488772e+002 1.986942600333e+002 1.985040949811e+002 1.990315976750e+002 1.990316530408e+002 1.984782084755e+002 1.983803000146e+002 1.990280985667e+002 1.971015601137e+002 1.990204457465e+002 1.990209657708e+002 1.968889650602e+002 1.990262484116e+002 1.967165140651e+002 1.971398464660e+002 1.975671859074e+002 1.978057556429e+002 1.969032804190e+002 1.966851121769e+002 1.975483626282e+002 1.967878823185e+002 1.967824110909e+002 1.978241142783e+002 1.967037048643e+002 1.976177857127e+002 1.977271457805e+002 1.966849786652e+002 1.972889668781e+002 1.986341682146e+002 1.987417372347e+002 1.988338976501e+002 1.989414128815e+002 1.989898509650e+002 1.985728058148e+002 1.978783254670e+002 1.980535356031e+002 1.982179640014e+002 1.983701014757e+002 1.976469380237e+002 1.967880155700e+002 1.977327190521e+002 1.976395067053e+002 1.990061041855e+002 1.990255486205e+002 1.969807529833e+002 1.974820902329e+002 1.969387574665e+002 1.972740248179e+002 1.990290932458e+002 1.966960659720e+002 1.984656757450e+002 1.983225721615e+002 1.981663438430e+002 1.979982416863e+002 1.986121028455e+002 1.985957637074e+002 1.984870815897e+002 1.987244753148e+002 1.988194505654e+002 1.975214653475e+002 1.988975539730e+002 1.973230236791e+002 1.989582367201e+002 1.971197068615e+002 1.989957039127e+002 1.989579775482e+002 1.988977144548e+002 1.988198322125e+002 1.987249288846e+002 1.971195822855e+002 1.973221970280e+002 1.979991465924e+002 1.981661607861e+002 1.983224035946e+002 1.989955801918e+002 1.969434831998e+002 1.978494509582e+002 1.989987771089e+002 1.990218694531e+002 1.990218719288e+002 1.969581054369e+002 1.968776135799e+002 1.967029724885e+002 1.977171986546e+002 1.989819657559e+002 1.989301779206e+002 1.988481442932e+002 1.987588796774e+002 1.986517428632e+002 1.970162493640e+002 1.972539023622e+002 1.974541320406e+002 1.983963365241e+002 1.980842768541e+002 1.979109998577e+002 1.982438847110e+002 1.985536567567e+002 1.990112045073e+002 1.990299548849e+002 1.990299560204e+002 1.989528374025e+002 1.988146419195e+002 1.987187547606e+002 1.973341772004e+002 1.980159724781e+002 1.981829212217e+002 1.983378607049e+002 1.975328859102e+002 1.976589289865e+002 1.986071716796e+002 1.986008551076e+002 1.978388947685e+002 1.990320276178e+002 1.989616139745e+002 1.975019536373e+002 1.978669797067e+002 1.986615402023e+002 1.987660513385e+002 1.988540739448e+002 1.989785110841e+002 1.989253306887e+002 1.974394907094e+002 1.972388549047e+002 1.970324871338e+002 1.982582043513e+002 1.984069903757e+002 1.979241007485e+002 1.980968052513e+002 1.989785072387e+002 1.989253111647e+002 1.980968002614e+002 1.982585853077e+002 1.988544934024e+002 1.984071723551e+002 1.987665611296e+002 1.986622871796e+002 1.972379092091e+002 1.985426568112e+002 1.985419771878e+002 1.967679310068e+002 1.975747680573e+002 1.967570859413e+002 1.978881082402e+002 1.976945615919e+002 1.990183658624e+002 1.990180440662e+002 1.977675167460e+002 1.977825465018e+002 1.977070020756e+002 1.986198369212e+002 1.984581779591e+002 1.984941252362e+002 1.985878411117e+002 1.983539410748e+002 1.982003850634e+002 1.980346789435e+002 1.987023260171e+002 1.971632562512e+002 1.973654448536e+002 1.989474184934e+002 1.988824982305e+002 1.988007814101e+002 1.989469029081e+002 1.971630119885e+002 1.988825012822e+002 1.973653974073e+002 1.980346808427e+002 1.982003870207e+002 1.983510209000e+002 1.988007834947e+002 1.987023270617e+002 1.976551584366e+002 1.966686574091e+002 1.990301798260e+002 1.976122428632e+002 1.984769794434e+002 1.984755680330e+002 1.971351425083e+002 1.971347702394e+002 1.988924447945e+002 1.988923599574e+002 1.990270358037e+002 1.967021534926e+002 1.968637501961e+002 1.969454431747e+002 1.967326200687e+002 1.990320627853e+002 1.990527721844e+002 1.990320850899e+002 1.989859019347e+002 1.966735630382e+002 1.990027500739e+002 1.990028393912e+002 1.987159483788e+002 1.988122818038e+002 1.973395502852e+002 1.983333164039e+002 1.980106950325e+002 1.981779879435e+002 1.989542149325e+002 1.968399789767e+002 1.968462214834e+002 1.966857158510e+002 1.978108793752e+002 1.975614819256e+002 1.966946273886e+002 1.968992587535e+002 1.970398475836e+002 1.976118631813e+002 1.968697105359e+002 1.990128611912e+002 1.990128617364e+002 1.975914598358e+002 1.977911667686e+002 1.990078689570e+002 1.975157643265e+002 1.977959220390e+002 1.977651035192e+002 1.989366335119e+002 1.969922110640e+002 1.989867198434e+002 1.980469815038e+002 1.982114430586e+002 1.983644900447e+002 1.985805175687e+002 1.972781895600e+002 1.988383037967e+002 1.974775582733e+002 1.987470270713e+002 1.986268585771e+002 1.989982605961e+002 1.967833540188e+002 1.977304682407e+002 1.976660808750e+002 1.975359194211e+002 1.966719026012e+002 1.990321199787e+002 1.991211354146e+002 1.990321213361e+002 1.991950597092e+002 1.969593626837e+002 1.969283913129e+002 1.976836070716e+002 1.976127193840e+002 1.990272244144e+002 1.974283647974e+002 1.979314562660e+002 1.968432756423e+002 1.978144599850e+002 1.967130033178e+002 1.986824847693e+002 1.987839390945e+002 1.988687767897e+002 1.974020202484e+002 1.972004993878e+002 1.988777473205e+002 1.989643908124e+002 1.987949369281e+002 1.989058690762e+002 1.986954321463e+002 1.971763555926e+002 1.973782981923e+002 1.970952455796e+002 1.979771514675e+002 1.983046007566e+002 1.981465516984e+002 1.984493348510e+002 1.989691335783e+002 1.989123210674e+002 1.970747263578e+002 1.985182944857e+002 1.979565505732e+002 1.981272833177e+002 1.982864613685e+002 1.984327992921e+002 1.985029367868e+002 1.985419800337e+002 1.984069798434e+002 1.980967984382e+002 1.982582033426e+002 1.979240971370e+002 1.989785139823e+002 1.989253125199e+002 1.988546585653e+002 1.986621408670e+002 1.987667604566e+002 1.970330826293e+002 1.972374393479e+002 1.974384221284e+002 1.975588425264e+002 1.968897345316e+002 1.990268895255e+002 1.969542989110e+002 1.985007008341e+002 1.984513712586e+002 1.983064995961e+002 1.981489418311e+002 1.979796516271e+002 1.989043666157e+002 1.989633328003e+002 1.970994441150e+002 1.988788382104e+002 1.987960186076e+002 1.986965661769e+002 1.971732513081e+002 1.973761595826e+002 1.976786173116e+002 1.990133529786e+002 1.976568355076e+002 1.990161015645e+002 1.985395489798e+002 1.985435534026e+002 1.984113573287e+002 1.982629107364e+002 1.981019535412e+002 1.979295793990e+002 1.989776694946e+002 1.989241302020e+002 1.988523976071e+002 1.987640226796e+002 1.986642665706e+002 1.972432365923e+002 1.986607551298e+002 1.980999759978e+002 1.982552537622e+002 1.984096810782e+002 1.987656664367e+002 1.988537553472e+002 1.974402757170e+002 1.989254210219e+002 1.972396693257e+002 1.989785891309e+002 1.970321532393e+002 1.967384634579e+002 1.989178354927e+002 1.970572698453e+002 1.989731424860e+002 1.981153741486e+002 1.984227320186e+002 1.982766000207e+002 1.979438625203e+002 1.972156815619e+002 1.988630426667e+002 1.974168285992e+002 1.987769477458e+002 1.986739740499e+002 1.985283333389e+002 1.968062862839e+002 1.990320924233e+002 1.990656759746e+002 1.990199905312e+002 1.990251746708e+002 1.990251722005e+002 1.976507382554e+002 1.977244637774e+002 1.968331960060e+002 1.970372601066e+002 1.990052117730e+002 1.968190540644e+002 1.990128397352e+002 1.990127324976e+002 1.969188507028e+002 1.986262502528e+002 1.987359050370e+002 1.974986376471e+002 1.988290286947e+002 1.973005830597e+002 1.983659845046e+002 1.982116497878e+002 1.980487292624e+002 1.985802308745e+002 1.989913367122e+002 1.969651262931e+002 1.989437251683e+002 1.975348923385e+002 1.978366251709e+002 1.976325477802e+002 1.966745601259e+002 1.967166130198e+002 1.990310755930e+002 1.980638013814e+002 1.990310751918e+002 1.980120382882e+002 1.979331725956e+002 1.974291586963e+002 1.978666668451e+002 1.966853618077e+002 1.989934695142e+002 1.976015500552e+002 1.975971671333e+002 1.977526833061e+002 1.976280675429e+002 1.968235028344e+002 1.966669683447e+002 1.967455105292e+002 1.974707840895e+002 1.966661424653e+002 1.967802116637e+002 1.976449547036e+002 1.967359973692e+002 1.966725577145e+002 1.977032002472e+002 1.975814785996e+002 1.977583152875e+002 1.976087657698e+002 1.990231284314e+002 1.970801050212e+002 1.969845369822e+002 1.985558961583e+002 1.985868640179e+002 1.989933144300e+002 1.989466981965e+002 1.989838565100e+002 1.989324711051e+002 1.988293255557e+002 1.987362575671e+002 1.972999520691e+002 1.986497349694e+002 1.986207863292e+002 1.978999548202e+002 1.978631853359e+002 1.980743722288e+002 1.980364273348e+002 1.982020162478e+002 1.982373899544e+002 1.983878227254e+002 1.983553795509e+002 1.973533632071e+002 1.990294251066e+002 1.990293989011e+002 1.990309608977e+002 1.990309616076e+002 1.977202668570e+002 1.990305397322e+002 1.984369936254e+002 1.982910576157e+002 1.981322452329e+002 1.979618375203e+002 1.985143407519e+002 1.985689051071e+002 1.986377914632e+002 1.987456427184e+002 1.974805776396e+002 1.988371532068e+002 1.972810014833e+002 1.989116645712e+002 1.970767439906e+002 1.989686597251e+002 1.989686464136e+002 1.989116452699e+002 1.989875897330e+002 1.988370796015e+002 1.987455546462e+0