<?xml version="1.0"?>
<VTKFile type="UnstructuredGrid" version="0.1" byte_order="LittleEndian">
  <UnstructuredGrid>
    <Piece NumberOfPoints="2604" NumberOfCells="4910">
      <Points>
        <DataArray type="Float64" NumberOfComponents="3" format="ascii">
          0.000000000000e+000 0.000000000000e+000 0.000000000000e+000
          2.000000000000e+002 0.000000000000e+000 0.000000000000e+000
          2.000000000000e+002 2.000000000000e+001 0.000000000000e+000
          0.000000000000e+000 2.000000000000e+001 0.000000000000e+000
          1.492537313427e+000 0.000000000000e+000 0.000000000000e+000
          2.985074626854e+000 0.000000000000e+000 0.000000000000e+000
          4.477611940281e+000 0.000000000000e+000 0.000000000000e+000
          5.970149253708e+000 0.000000000000e+000 0.000000000000e+000
          7.462686567135e+000 0.000000000000e+000 0.000000000000e+000
          8.955223880561e+000 0.000000000000e+000 0.000000000000e+000
          1.044776119399e+001 0.000000000000e+000 0.000000000000e+000
          1.194029850741e+001 0.000000000000e+000 0.000000000000e+000
          1.343283582084e+001 0.000000000000e+000 0.000000000000e+000
          1.492537313427e+001 0.000000000000e+000 0.000000000000e+000
          1.641791044770e+001 0.000000000000e+000 0.000000000000e+000
          1.791044776112e+001 0.000000000000e+000 0.000000000000e+000
          1.940298507455e+001 0.000000000000e+000 0.000000000000e+000
          2.089552238798e+001 0.000000000000e+000 0.000000000000e+000
          2.238805970141e+001 0.000000000000e+000 0.000000000000e+000
          2.388059701484e+001 0.000000000000e+000 0.000000000000e+000
          2.537313432826e+001 0.000000000000e+000 0.000000000000e+000
          2.686567164169e+001 0.000000000000e+000 0.000000000000e+000
          2.835820895511e+001 0.000000000000e+000 0.000000000000e+000
          2.985074626854e+001 0.000000000000e+000 0.000000000000e+000
          3.134328358196e+001 0.000000000000e+000 0.000000000000e+000
          3.283582089539e+001 0.000000000000e+000 0.000000000000e+000
          3.432835820881e+001 0.000000000000e+000 0.000000000000e+000
          3.582089552224e+001 0.000000000000e+000 0.000000000000e+000
          3.731343283566e+001 0.000000000000e+000 0.000000000000e+000
          3.880597014909e+001 0.000000000000e+000 0.000000000000e+000
          4.029850746251e+001 0.000000000000e+000 0.000000000000e+000
          4.179104477594e+001 0.000000000000e+000 0.000000000000e+000
          4.328358208936e+001 0.000000000000e+000 0.000000000000e+000
          4.477611940279e+001 0.000000000000e+000 0.000000000000e+000
          4.626865671621e+001 0.000000000000e+000 0.000000000000e+000
          4.776119402964e+001 0.000000000000e+000 0.000000000000e+000
          4.925373134306e+001 0.000000000000e+000 0.000000000000e+000
          5.074626865649e+001 0.000000000000e+000 0.000000000000e+000
          5.223880596991e+001 0.000000000000e+000 0.000000000000e+000
          5.373134328334e+001 0.000000000000e+000 0.000000000000e+000
          5.522388059676e+001 0.000000000000e+000 0.000000000000e+000
          5.671641791019e+001 0.000000000000e+000 0.000000000000e+000
          5.820895522361e+001 0.000000000000e+000 0.000000000000e+000
          5.970149253704e+001 0.000000000000e+000 0.000000000000e+000
          6.119402985046e+001 0.000000000000e+000 0.000000000000e+000
          6.268656716389e+001 0.000000000000e+000 0.000000000000e+000
          6.417910447732e+001 0.000000000000e+000 0.000000000000e+000
          6.567164179075e+001 0.000000000000e+000 0.000000000000e+000
          6.716417910418e+001 0.000000000000e+000 0.000000000000e+000
          6.865671641761e+001 0.000000000000e+000 0.000000000000e+000
          7.014925373104e+001 0.000000000000e+000 0.000000000000e+000
          7.164179104447e+001 0.000000000000e+000 0.000000000000e+000
          7.313432835790e+001 0.000000000000e+000 0.000000000000e+000
          7.462686567133e+001 0.000000000000e+000 0.000000000000e+000
          7.611940298476e+001 0.000000000000e+000 0.000000000000e+000
          7.761194029819e+001 0.000000000000e+000 0.000000000000e+000
          7.910447761162e+001 0.000000000000e+000 0.000000000000e+000
          8.059701492505e+001 0.000000000000e+000 0.000000000000e+000
          8.208955223848e+001 0.000000000000e+000 0.000000000000e+000
          8.358208955191e+001 0.000000000000e+000 0.000000000000e+000
          8.507462686534e+001 0.000000000000e+000 0.000000000000e+000
          8.656716417877e+001 0.000000000000e+000 0.000000000000e+000
          8.805970149220e+001 0.000000000000e+000 0.000000000000e+000
          8.955223880563e+001 0.000000000000e+000 0.000000000000e+000
          9.104477611907e+001 0.000000000000e+000 0.000000000000e+000
          9.253731343250e+001 0.000000000000e+000 0.000000000000e+000
          9.402985074593e+001 0.000000000000e+000 0.000000000000e+000
          9.552238805936e+001 0.000000000000e+000 0.000000000000e+000
          9.701492537279e+001 0.000000000000e+000 0.000000000000e+000
          9.850746268622e+001 0.000000000000e+000 0.000000000000e+000
          9.999999999965e+001 0.000000000000e+000 0.000000000000e+000
          1.014925373131e+002 0.000000000000e+000 0.000000000000e+000
          1.029850746265e+002 0.000000000000e+000 0.000000000000e+000
          1.044776119399e+002 0.000000000000e+000 0.000000000000e+000
          1.059701492534e+002 0.000000000000e+000 0.000000000000e+000
          1.074626865668e+002 0.000000000000e+000 0.000000000000e+000
          1.089552238802e+002 0.000000000000e+000 0.000000000000e+000
          1.104477611937e+002 0.000000000000e+000 0.000000000000e+000
          1.119402985071e+002 0.000000000000e+000 0.000000000000e+000
          1.134328358205e+002 0.000000000000e+000 0.000000000000e+000
          1.149253731340e+002 0.000000000000e+000 0.000000000000e+000
          1.164179104474e+002 0.000000000000e+000 0.000000000000e+000
          1.179104477608e+002 0.000000000000e+000 0.000000000000e+000
          1.194029850742e+002 0.000000000000e+000 0.000000000000e+000
          1.208955223877e+002 0.000000000000e+000 0.000000000000e+000
          1.223880597011e+002 0.000000000000e+000 0.000000000000e+000
          1.238805970145e+002 0.000000000000e+000 0.000000000000e+000
          1.253731343280e+002 0.000000000000e+000 0.000000000000e+000
          1.268656716414e+002 0.000000000000e+000 0.000000000000e+000
          1.283582089548e+002 0.000000000000e+000 0.000000000000e+000
          1.298507462683e+002 0.000000000000e+000 0.000000000000e+000
          1.313432835817e+002 0.000000000000e+000 0.000000000000e+000
          1.328358208952e+002 0.000000000000e+000 0.000000000000e+000
          1.343283582086e+002 0.000000000000e+000 0.000000000000e+000
          1.358208955220e+002 0.000000000000e+000 0.000000000000e+000
          1.373134328355e+002 0.000000000000e+000 0.000000000000e+000
          1.388059701489e+002 0.000000000000e+000 0.000000000000e+000
          1.402985074624e+002 0.000000000000e+000 0.000000000000e+000
          1.417910447758e+002 0.000000000000e+000 0.000000000000e+000
          1.432835820892e+002 0.000000000000e+000 0.000000000000e+000
          1.447761194027e+002 0.000000000000e+000 0.000000000000e+000
          1.462686567161e+002 0.000000000000e+000 0.000000000000e+000
          1.477611940296e+002 0.000000000000e+000 0.000000000000e+000
          1.492537313430e+002 0.000000000000e+000 0.000000000000e+000
          1.507462686564e+002 0.000000000000e+000 0.000000000000e+000
          1.522388059699e+002 0.000000000000e+000 0.000000000000e+000
          1.537313432833e+002 0.000000000000e+000 0.000000000000e+000
          1.552238805968e+002 0.000000000000e+000 0.000000000000e+000
          1.567164179102e+002 0.000000000000e+000 0.000000000000e+000
          1.582089552237e+002 0.000000000000e+000 0.000000000000e+000
          1.597014925371e+002 0.000000000000e+000 0.000000000000e+000
          1.611940298505e+002 0.000000000000e+000 0.000000000000e+000
          1.626865671640e+002 0.000000000000e+000 0.000000000000e+000
          1.641791044774e+002 0.000000000000e+000 0.000000000000e+000
          1.656716417909e+002 0.000000000000e+000 0.000000000000e+000
          1.671641791043e+002 0.000000000000e+000 0.000000000000e+000
          1.686567164177e+002 0.000000000000e+000 0.000000000000e+000
          1.701492537312e+002 0.000000000000e+000 0.000000000000e+000
          1.716417910446e+002 0.000000000000e+000 0.000000000000e+000
          1.731343283581e+002 0.000000000000e+000 0.000000000000e+000
          1.746268656715e+002 0.000000000000e+000 0.000000000000e+000
          1.761194029849e+002 0.000000000000e+000 0.000000000000e+000
          1.776119402984e+002 0.000000000000e+000 0.000000000000e+000
          1.791044776118e+002 0.000000000000e+000 0.000000000000e+000
          1.805970149253e+002 0.000000000000e+000 0.000000000000e+000
          1.820895522387e+002 0.000000000000e+000 0.000000000000e+000
          1.835820895521e+002 0.000000000000e+000 0.000000000000e+000
          1.850746268656e+002 0.000000000000e+000 0.000000000000e+000
          1.865671641790e+002 0.000000000000e+000 0.000000000000e+000
          1.880597014925e+002 0.000000000000e+000 0.000000000000e+000
          1.895522388059e+002 0.000000000000e+000 0.000000000000e+000
          1.910447761194e+002 0.000000000000e+000 0.000000000000e+000
          1.925373134328e+002 0.000000000000e+000 0.000000000000e+000
          1.940298507462e+002 0.000000000000e+000 0.000000000000e+000
          1.955223880597e+002 0.000000000000e+000 0.000000000000e+000
          1.970149253731e+002 0.000000000000e+000 0.000000000000e+000
          1.985074626866e+002 0.000000000000e+000 0.000000000000e+000
          2.000000000000e+002 1.428571428570e+000 0.000000000000e+000
          2.000000000000e+002 2.857142857140e+000 0.000000000000e+000
[...]
      <PointData Scalars="MEAN_PRESSURE">
        <DataArray type="Float64" Name="MEAN_PRESSURE" format="ascii">
          2.000000000000e+002 1.988088849488e+002 1.988088836280e+002 2.000000000000e+002 1.995540045481e+002 1.986285754260e+002 1.979838348462e+002 1.975144867678e+002 1.971863076452e+002 1.969697489385e+002 1.968312308108e+002 1.967524346772e+002 1.967143898976e+002 1.967042046450e+002 1.967114317061e+002 1.967297201908e+002 1.967541883630e+002 1.967818341997e+002 1.968108078137e+002 1.968400674651e+002 1.968690963444e+002 1.968976310512e+002 1.969256617425e+002 1.969532363024e+002 1.969804332329e+002 1.970073242861e+002 1.970339850448e+002 1.970604692399e+002 1.970868134153e+002 1.971130478572e+002 1.971391899421e+002 1.971652515474e+002 1.971912347122e+002 1.972171421097e+002 1.972429722937e+002 1.972687217782e+002 1.972943889091e+002 1.973199673325e+002 1.973454545204e+002 1.973708471586e+002 1.973961378839e+002 1.974213206612e+002 1.974463960298e+002 1.974713564509e+002 1.974961993896e+002 1.975209194834e+002 1.975455150015e+002 1.975699743080e+002 1.975943036373e+002 1.976184903185e+002 1.976425320870e+002 1.976664265642e+002 1.976901726800e+002 1.977137543194e+002 1.977371797821e+002 1.977604414163e+002 1.977835371381e+002 1.978064567556e+002 1.978291990339e+002 1.978517698626e+002 1.978741472441e+002 1.978963378087e+002 1.979183368359e+002 1.979401442873e+002 1.979617509384e+002 1.979831547708e+002 1.980043528547e+002 1.980253393797e+002 1.980461146746e+002 1.980666702474e+002 1.980870099238e+002 1.981071211716e+002 1.981270080633e+002 1.981466632670e+002 1.981660834327e+002 1.981852688976e+002 1.982042110932e+002 1.982229143009e+002 1.982413687033e+002 1.982595744856e+002 1.982775238665e+002 1.982952218850e+002 1.983126585642e+002 1.983298362098e+002 1.983467477729e+002 1.983633917184e+002 1.983797671451e+002 1.983958696532e+002 1.984116967014e+002 1.984272462668e+002 1.984425157528e+002 1.984575031668e+002 1.984722061947e+002 1.984866202972e+002 1.985007417859e+002 1.985145748469e+002 1.985281102012e+002 1.985413493851e+002 1.985542906532e+002 1.985669329277e+002 1.985792710629e+002 1.985913015590e+002 1.986030291396e+002 1.986144444336e+002 1.986255495345e+002 1.986363431248e+002 1.986468245644e+002 1.986569889330e+002 1.986668330275e+002 1.986763621889e+002 1.986855670423e+002 1.986944500034e+002 1.987030108707e+002 1.987112501123e+002 1.987191609415e+002 1.987267413445e+002 1.987339977422e+002 1.987409205832e+002 1.987475127131e+002 1.987537739559e+002 1.987597054783e+002 1.987653029963e+002 1.987705629181e+002 1.987754871915e+002 1.987800745816e+002 1.987843218384e+002 1.987882352954e+002 1.987918141176e+002 1.987950486512e+002 1.987979509602e+002 1.988005180291e+002 1.988027274788e+002 1.988046018920e+002 1.988061370872e+002 1.988073504164e+002 1.988081702795e+002 1.988086979973e+002 1.988088666856e+002 1.988088496796e+002 1.988088866124e+002 1.988088792016e+002 1.988088755696e+002 1.988088689053e+002 1.988088645319e+002 1.988088675641e+002 1.988088679138e+002 1.988088595731e+002 1.988088826226e+002 1.988088475838e+002 1.988088652278e+002 1.988086968074e+002 1.988081693342e+002 1.988073495983e+002 1.988061362801e+002 1.988046012687e+002 1.988027279367e+002 1.988005195334e+002 1.987979526773e+002 1.987950502576e+002 1.987918156108e+002 1.987882356550e+002 1.987843224656e+002 1.987800743802e+002 1.987754861028e+002 1.987705621109e+002 1.987653013818e+002 1.987597034669e+002 1.987537782588e+002 1.987475162406e+002 1.987409214776e+002 1.987339975234e+002 1.987267423943e+002 1.987191581492e+002 1.987112496377e+002 1.987030132430e+002 1.986944532030e+002 1.986855670199e+002 1.986763611937e+002 1.986668311620e+002 1.986569878356e+002 1.986468230835e+002 1.986363436876e+002 1.986255506000e+002 1.986144422922e+002 1.986030277520e+002 1.985913001960e+002 1.985792706855e+002 1.985669320856e+002 1.985542914596e+002 1.985413502817e+002 1.985281079219e+002 1.985145735466e+002 1.985007408981e+002 1.984866204387e+002 1.984722059995e+002 1.984575014411e+002 1.984425165279e+002 1.984272468136e+002 1.984116969670e+002 1.983958696617e+002 1.983797679657e+002 1.983633945511e+002 1.983467500746e+002 1.983298360594e+002 1.983126612511e+002 1.982952220418e+002 1.982775244486e+002 1.982595720817e+002 1.982413696359e+002 1.982229140662e+002 1.982042137687e+002 1.981852699717e+002 1.981660842608e+002 1.981466617435e+002 1.981270064793e+002 1.981071220631e+002 1.980870090350e+002 1.980666719757e+002 1.980461137418e+002 1.980253392951e+002 1.980043511460e+002 1.979831537516e+002 1.979617511526e+002 1.979401445696e+002 1.979183387891e+002 1.978963370265e+002 1.978741443447e+002 1.978517636075e+002 1.978291992972e+002 1.978064562997e+002 1.977835360179e+002 1.977604431102e+002 1.977371809298e+002 1.977137548088e+002 1.976901677447e+002 1.976664249576e+002 1.976425302530e+002 1.976184844791e+002 1.975942989390e+002 1.975699729271e+002 1.975455096543e+002 1.975209166565e+002 1.974961930779e+002 1.974713469828e+002 1.974463837004e+002 1.974213046024e+002 1.973961150512e+002 1.973708198865e+002 1.973454222115e+002 1.973199256991e+002 1.972943363493e+002 1.972686554810e+002 1.972428875525e+002 1.972170351914e+002 1.971911000439e+002 1.971650807122e+002 1.971389740460e+002 1.971127744581e+002 1.970864662184e+002 1.970600293790e+002 1.970334315488e+002 1.970066274098e+002 1.969795515074e+002 1.969521223885e+002 1.969242475644e+002 1.968958336428e+002 1.968668221690e+002 1.968372253691e+002 1.968072523968e+002 1.967773796712e+002 1.967486198606e+002 1.967228346116e+002 1.967030062051e+002 1.966935267512e+002 1.967020337103e+002 1.967381882682e+002 1.968156331143e+002 1.969496085516e+002 1.971682130674e+002 1.974982871164e+002 1.979660474671e+002 1.986171363891e+002 1.995386917574e+002 2.000000000000e+002 2.000000000000e+002 2.000000000000e+002 2.000000000000e+002 2.000000000000e+002 2.000000000000e+002 2.000000000000e+002 2.000000000000e+002 2.000000000000e+002 2.000000000000e+002 2.000000000000e+002 2.000000000000e+002 2.000000000000e+002 1.988011914387e+002 1.968660310385e+002 1.987779677920e+002 1.987376315994e+002 1.986804229372e+002 1.986080553749e+002 1.985205258964e+002 1.969108946815e+002 1.984195003599e+002 1.971014241764e+002 1.972831412628e+002 1.974619912610e+002 1.977234885229e+002 1.978852602035e+002 1.980357480940e+002 1.981757004171e+002 1.983039660232e+002 1.967405371486e+002 1.975943023001e+002 1.983633881662e+002 1.983626293091e+002 1.982413691364e+002 1.981071215011e+002 1.979617516218e+002 1.978064575512e+002 1.987605778670e+002 1.987124704856e+002 1.986480271215e+002 1.978064541955e+002 1.979578904796e+002 1.981087347311e+002 1.982380752986e+002 1.985683920004e+002 1.984722006328e+002 1.970058182005e+002 1.971881463835e+002 1.973736941172e+002 1.984728812460e+002 1.985670528518e+002 1.986469226106e+002 1.987112416379e+002 1.987596970578e+002 1.973705661601e+002 1.971908657796e+002 1.970067793904e+002 1.987914565633e+002 1.987912417212e+002 1.975420021367e+002 1.976489382630e+002 1.966958287521e+002 1.968119771846e+002 1.988061876288e+002 1.975099110932e+002 1.988062301554e+002 1.975129583405e+002 1.967061152537e+002 1.968356749702e+002 1.975152952457e+002 1.976698228122e+002 1.987778271097e+002 1.983039682446e+002 1.987374947772e+002 1.981757062607e+002 1.980357538012e+002 1.978852645857e+002 1.977304602851e+002 1.984193502169e+002 1.986811612264e+002 1.986097853864e+002 1.985225802023e+002 1.970994095717e+002 1.972792689814e+002 1.984196509393e+002 1.985213730624e+002 1.986087697307e+002 1.986809990398e+002 1.978852257449e+002 1.980357162964e+002 1.981756694544e+002 1.987374948348e+002 1.983042829004e+002 1.987778215028e+002 1.974588825946e+002 1.972815137831e+002 1.970996770498e+002 1.969103335948e+002 1.988002244125e+002 1.988003842108e+002 1.968112394549e+002 1.969260427120e+002 1.977419372828e+002 1.974397318309e+002 1.988074667221e+002 1.980394780496e+002 1.967434331624e+002 1.968726755608e+002 1.967383493975e+002 1.975803728934e+002 1.975293158115e+002 1.976591417511e+002 1.967003196049e+002 1.968165467225e+002 1.975948494908e+002 1.987940646818e+002 1.986560050054e+002 1.987033069770e+002 1.985780755033e+002 1.987539843490e+002 1.984852094566e+002 1.982565190529e+002 1.979795612136e+002 1.978253807305e+002 1.981250654493e+002 1.970327171322e+002 1.973479163360e+002 1.971677058823e+002 1.983483679908e+002 1.975943003265e+002 1.988080113779e+002 1.984924877697e+002 1.988080113528e+002 1.984684620280e+002 1.982660533173e+002 1.981340980394e+002 1.979907986458e+002 1.978373339603e+002 1.984521335688e+002 1.983400114187e+002 1.983855833058e+002 1.985496604183e+002 1.974051886415e+002 1.986324868707e+002 1.972263512712e+002 1.986999569010e+002 1.970430531752e+002 1.987515486688e+002 1.987513101601e+002 1.987676071611e+002 1.986996263068e+002 1.987220704311e+002 1.986314848643e+002 1.986601761811e+002 1.985484567255e+002 1.985831624612e+002 1.970470884322e+002 1.984910923845e+002 1.984520914630e+002 1.972288632624e+002 1.971568586455e+002 1.978374500562e+002 1.979916623312e+002 1.981356759765e+002 1.979330928595e+002 1.980803504035e+002 1.982652494701e+002 1.982168725867e+002 1.973436200539e+002 1.983856261249e+002 1.983432029412e+002 1.987672307272e+002 1.969697924508e+002 1.987207450264e+002 1.971595965450e+002 1.986590837994e+002 1.973400575848e+002 1.985818256350e+002 1.977715108460e+002 1.979301278352e+002 1.980776720190e+002 1.982139982119e+002 1.984896148057e+002 1.967291690435e+002 1.987866314487e+002 1.987864573749e+002 1.976743633044e+002 1.975100249947e+002 1.968510147249e+002 1.983841898928e+002 1.980809469197e+002 1.982177358252e+002 1.979341018459e+002 1.977719808124e+002 1.969719272443e+002 1.972241814068e+002 1.987668990655e+002 1.974036634022e+002 1.987212615323e+002 1.986334117222e+002 1.984534244434e+002 1.985507704370e+002 1.969797622425e+002 1.987951669483e+002 1.987951663324e+002 1.976322468594e+002 1.967019691875e+002 1.987870004345e+002 1.983973103832e+002 1.984413803349e+002 1.985403474445e+002 1.974217626371e+002 1.986247114151e+002 1.972448874991e+002 1.979167025702e+002 1.980651426553e+002 1.982028069397e+002 1.987706596870e+002 1.969519732531e+002 1.987273081387e+002 1.967968526180e+002 1.977624073319e+002 1.988045230614e+002 1.988043133884e+002 1.987838203335e+002 1.977864735576e+002 1.973930000858e+002 1.976929536767e+002 1.974925221272e+002 1.971603452130e+002 1.968720384415e+002 1.967324554771e+002 1.967046787048e+002 1.968727130223e+002 1.982766798375e+002 1.981460448452e+002 1.980036831996e+002 1.978510524546e+002 1.986949041007e+002 1.970588055552e+002 1.987478605094e+002 1.983291344034e+002 1.985003625357e+002 1.986941018948e+002 1.985918104164e+002 1.987472620831e+002 1.986672458733e+002 1.982788051431e+002 1.981459903687e+002 1.980052308747e+002 1.978527010728e+002 1.970614516629e+002 1.973206812810e+002 1.971380351467e+002 1.971379437783e+002 1.986672394351e+002 1.973188682240e+002 1.985917952489e+002 1.985013224835e+002 1.983291217597e+002 1.988080983641e+002 1.988081488669e+002 1.985755699862e+002 1.984834110159e+002 1.988049067238e+002 1.972191127018e+002 1.987979270929e+002 1.987984013444e+002 1.969919825871e+002 1.988032192265e+002 1.967854772868e+002 1.972569763548e+002 1.974861835276e+002 1.977001710775e+002 1.968887224078e+002 1.967365228005e+002 1.974693124504e+002 1.967834328317e+002 1.967787049781e+002 1.977166523202e+002 1.967149781633e+002 1.975315437573e+002 1.976296253372e+002 1.967014200789e+002 1.972369521782e+002 1.984468546699e+002 1.985443922265e+002 1.986280924701e+002 1.987259050706e+002 1.987700337292e+002 1.983912862274e+002 1.977653327773e+002 1.979228182764e+002 1.980708524513e+002 1.982080610428e+002 1.975576832816e+002 1.967836166922e+002 1.976346255231e+002 1.975510191687e+002 1.987848498470e+002 1.988025809755e+002 1.969597035408e+002 1.974099258183e+002 1.970440822531e+002 1.973987624771e+002 1.988058139776e+002 1.967092990290e+002 1.982943888136e+002 1.981651691574e+002 1.980243518671e+002 1.978730917189e+002 1.984268671625e+002 1.984120707226e+002 1.983137386124e+002 1.985287291343e+002 1.986149631864e+002 1.974452070697e+002 1.986859818226e+002 1.972674471713e+002 1.987412277226e+002 1.970852379205e+002 1.987753686582e+002 1.987409916247e+002 1.986861278300e+002 1.986153099953e+002 1.985291406801e+002 1.970851447739e+002 1.972667105299e+002 1.978739052629e+002 1.980241869882e+002 1.981650170561e+002 1.987752558845e+002 1.969256121900e+002 1.977394016194e+002 1.987781700775e+002 1.987992254906e+002 1.987992277472e+002 1.969390440868e+002 1.968650921246e+002 1.967714651945e+002 1.976207013280e+002 1.987628473791e+002 1.987156752936e+002 1.986410429238e+002 1.985599514694e+002 1.984627794045e+002 1.969919524222e+002 1.972055481882e+002 1.973848773236e+002 1.982317473098e+002 1.979504756823e+002 1.977946837534e+002 1.980942123677e+002 1.983739555961e+002 1.987895001336e+002 1.988065998993e+002 1.988066009354e+002 1.987363096615e+002 1.986105938000e+002 1.985235392497e+002 1.972774378478e+002 1.978890344103e+002 1.980392822237e+002 1.981789631989e+002 1.976591839032e+002 1.975684361976e+002 1.984224011120e+002 1.984166809554e+002 1.977299228316e+002 1.988084905429e+002 1.990325359781e+002 1.974277235806e+002 1.977551427859e+002 1.984716587703e+002 1.985664620526e+002 1.986464340000e+002 1.987596992196e+002 1.987112623752e+002 1.973717605913e+002 1.971920681522e+002 1.970066447992e+002 1.981071203837e+002 1.982413683513e+002 1.978064543285e+002 1.979617496661e+002 1.987596957223e+002 1.987112445938e+002 1.979617452940e+002 1.981074639567e+002 1.986468153930e+002 1.982415328677e+002 1.985669248942e+002 1.984723358354e+002 1.971912283965e+002 1.983640023296e+002 1.983633874432e+002 1.967659455355e+002 1.974929797600e+002 1.967570748349e+002 1.977741199240e+002 1.976003946933e+002 1.987960303532e+002 1.987957368991e+002 1.976658502437e+002 1.976793390283e+002 1.976115539477e+002 1.984338721807e+002 1.982876124079e+002 1.983201068086e+002 1.984048973645e+002 1.981934745655e+002 1.980550139859e+002 1.979058573207e+002 1.985086373723e+002 1.971243357463e+002 1.973054403914e+002 1.987313742987e+002 1.986722842350e+002 1.985980015139e+002 1.987309047175e+002 1.971241032962e+002 1.986722869982e+002 1.973053953074e+002 1.979058589739e+002 1.980550157032e+002 1.981908391717e+002 1.985980033940e+002 1.985086383077e+002 1.977785093672e+002 1.967186739991e+002 1.988068050773e+002 1.977368256250e+002 1.983046060310e+002 1.983033302035e+002 1.970991105259e+002 1.970987695767e+002 1.986813331256e+002 1.986812559286e+002 1.988039373870e+002 1.967129755695e+002 1.969589183498e+002 1.969274399156e+002 1.967361262843e+002 1.988085226217e+002 1.991192979420e+002 1.988085429669e+002 1.990573254971e+002 1.967002310280e+002 1.987817919450e+002 1.987818733735e+002 1.985209934388e+002 1.986084494247e+002 1.972822483804e+002 1.981748627899e+002 1.978842888739e+002 1.980348388017e+002 1.987375643754e+002 1.968305444823e+002 1.968362954706e+002 1.967426495478e+002 1.977047707330e+002 1.974810706023e+002 1.967526546724e+002 1.968849819228e+002 1.970133350155e+002 1.975262337756e+002 1.968577922617e+002 1.987910107291e+002 1.987910112251e+002 1.975079421116e+002 1.976870760482e+002 1.987864588556e+002 1.974400987037e+002 1.976913444169e+002 1.976636845202e+002 1.987215531055e+002 1.969701106770e+002 1.987671800092e+002 1.979169227751e+002 1.980649768021e+002 1.982029958291e+002 1.983982672389e+002 1.972272976320e+002 1.986320974771e+002 1.974058647876e+002 1.985491931791e+002 1.984402327314e+002 1.987776992418e+002 1.967795762564e+002 1.976326062118e+002 1.975748500128e+002 1.974581604451e+002 1.966969507220e+002 1.988085747913e+002 1.991830949595e+002 1.988085760300e+002 1.992513349047e+002 1.970687999807e+002 1.969117838537e+002 1.975905689833e+002 1.975270014422e+002 1.988041094164e+002 1.973617955344e+002 1.978130635553e+002 1.968335683573e+002 1.977079852633e+002 1.967221830338e+002 1.984906454144e+002 1.985827042870e+002 1.986598038225e+002 1.973381967010e+002 1.971577079707e+002 1.986679626986e+002 1.987468338249e+002 1.985926927152e+002 1.986935483393e+002 1.985023853616e+002 1.971360775075e+002 1.973169514649e+002 1.970632697213e+002 1.978541314656e+002 1.981489575511e+002 1.980065292714e+002 1.982796211177e+002 1.987511547445e+002 1.986994203231e+002 1.970447805279e+002 1.983419636794e+002 1.978356148819e+002 1.979891822589e+002 1.981325981635e+002 1.982646810932e+002 1.983280744490e+002 1.983633899769e+002 1.982413590188e+002 1.979617436901e+002 1.981071194980e+002 1.978064511820e+002 1.987597018532e+002 1.987112458216e+002 1.986469655659e+002 1.984722031632e+002 1.985671058642e+002 1.970072076073e+002 1.971908049024e+002 1.973708041569e+002 1.974787054848e+002 1.968762650254e+002 1.988038039708e+002 1.970629259227e+002 1.983260525996e+002 1.982814613008e+002 1.981506702996e+002 1.980086814299e+002 1.978563789790e+002 1.986921810807e+002 1.987458699880e+002 1.970670350126e+002 1.986689550279e+002 1.985936752561e+002 1.985034138531e+002 1.971332903143e+002 1.973150353569e+002 1.975860935129e+002 1.987914591676e+002 1.975665589820e+002 1.987939655174e+002 1.983611905322e+002 1.983648135101e+002 1.982453124986e+002 1.981113633907e+002 1.979663830242e+002 1.978113771250e+002 1.987589323269e+002 1.987101695030e+002 1.986449098638e+002 1.985646203117e+002 1.984741299365e+002 1.971959992001e+002 1.984709471739e+002 1.979646032009e+002 1.981044605391e+002 1.982437984723e+002 1.985661126395e+002 1.986461443465e+002 1.973724639646e+002 1.987113446296e+002 1.971927982288e+002 1.987597703488e+002 1.970063442891e+002 1.967413781066e+002 1.987044395001e+002 1.970290468034e+002 1.987548073436e+002 1.979784620892e+002 1.982555865617e+002 1.981237056486e+002 1.978242119952e+002 1.971713124000e+002 1.986545892195e+002 1.973514610875e+002 1.985763555687e+002 1.984829295618e+002 1.983510441444e+002 1.968957128034e+002 1.988085496563e+002 1.991305863830e+002 1.987975119586e+002 1.988022399143e+002 1.988022376622e+002 1.975610910257e+002 1.976272191555e+002 1.968243050982e+002 1.970109926022e+002 1.987840362380e+002 1.969128896715e+002 1.987909911725e+002 1.987908933889e+002 1.969030541891e+002 1.984396816483e+002 1.985390997194e+002 1.974247518528e+002 1.986236672622e+002 1.972473528342e+002 1.982043449157e+002 1.980651632013e+002 1.979184950020e+002 1.983980077602e+002 1.987713879344e+002 1.969454409706e+002 1.987280107735e+002 1.974572402118e+002 1.977278848889e+002 1.975447795871e+002 1.967051851992e+002 1.967827117440e+002 1.988076221444e+002 1.981785575698e+002 1.988076217788e+002 1.981297006531e+002 1.978146056614e+002 1.973625065446e+002 1.977548617512e+002 1.967049620584e+002 1.987733319552e+002 1.977258011773e+002 1.975130588537e+002 1.976525389105e+002 1.975407622727e+002 1.968154981196e+002 1.966945843966e+002 1.967470545644e+002 1.973997962346e+002 1.966939977749e+002 1.967768688554e+002 1.975559048211e+002 1.968138265007e+002 1.967169051004e+002 1.976081437029e+002 1.974989949463e+002 1.976575926667e+002 1.975234565831e+002 1.988003736779e+002 1.971953383419e+002 1.969631649310e+002 1.983759820148e+002 1.984040127005e+002 1.987731905869e+002 1.987307182765e+002 1.987645704413e+002 1.987177631063e+002 1.986239369623e+002 1.985394194821e+002 1.972467898722e+002 1.984609597174e+002 1.984347321226e+002 1.977847613540e+002 1.977517352476e+002 1.979415638784e+002 1.979074297775e+002 1.980564835072e+002 1.980883587968e+002 1.982240599049e+002 1.981947727871e+002 1.974796440588e+002 1.988061166732e+002 1.988060927723e+002 1.988075175243e+002 1.988075181723e+002 1.978448609097e+002 1.988071333602e+002 1.982684702211e+002 1.981367428471e+002 1.979936488782e+002 1.978403664198e+002 1.983383875815e+002 1.983877556302e+002 1.984501375027e+002 1.985479366773e+002 1.974085697552e+002 1.986310515696e+002 1.972298149238e+002 1.986988227729e+002 1.970465956222e+002 1.987507229989e+002 1.987507108640e+002 1.986988051917e+002 1.987679728081e+002 1.986309846706e+002 1.985478567561e+0