<?xml version="1.0"?>
<VTKFile type="UnstructuredGrid" version="0.1" byte_order="LittleEndian">
  <UnstructuredGrid>
    <Piece NumberOfPoints="2604" NumberOfCells="4910">
      <Points>
        <DataArray type="Float64" NumberOfComponents="3" format="ascii">
          0.000000000000e+000 0.000000000000e+000 0.000000000000e+000
          2.000000000000e+002 0.000000000000e+000 0.000000000000e+000
          2.000000000000e+002 2.000000000000e+001 0.000000000000e+000
          0.000000000000e+000 2.000000000000e+001 0.000000000000e+000
          1.492537313427e+000 0.000000000000e+000 0.000000000000e+000
          2.985074626854e+000 0.000000000000e+000 0.000000000000e+000
          4.477611940281e+000 0.000000000000e+000 0.000000000000e+000
          5.970149253708e+000 0.000000000000e+000 0.000000000000e+000
          7.462686567135e+000 0.000000000000e+000 0.000000000000e+000
          8.955223880561e+000 0.000000000000e+000 0.000000000000e+000
          1.044776119399e+001 0.000000000000e+000 0.000000000000e+000
          1.194029850741e+001 0.000000000000e+000 0.000000000000e+000
          1.343283582084e+001 0.000000000000e+000 0.000000000000e+000
          1.492537313427e+001 0.000000000000e+000 0.000000000000e+000
          1.641791044770e+001 0.000000000000e+000 0.000000000000e+000
          1.791044776112e+001 0.000000000000e+000 0.000000000000e+000
          1.940298507455e+001 0.000000000000e+000 0.000000000000e+000
          2.089552238798e+001 0.000000000000e+000 0.000000000000e+000
          2.238805970141e+001 0.000000000000e+000 0.000000000000e+000
          2.388059701484e+001 0.000000000000e+000 0.000000000000e+000
          2.537313432826e+001 0.000000000000e+000 0.000000000000e+000
          2.686567164169e+001 0.000000000000e+000 0.000000000000e+000
          2.835820895511e+001 0.000000000000e+000 0.000000000000e+000
          2.985074626854e+001 0.000000000000e+000 0.000000000000e+000
          3.134328358196e+001 0.000000000000e+000 0.000000000000e+000
          3.283582089539e+001 0.000000000000e+000 0.000000000000e+000
          3.432835820881e+001 0.000000000000e+000 0.000000000000e+000
          3.582089552224e+001 0.000000000000e+000 0.000000000000e+000
          3.731343283566e+001 0.000000000000e+000 0.000000000000e+000
          3.880597014909e+001 0.000000000000e+000 0.000000000000e+000
          4.029850746251e+001 0.000000000000e+000 0.000000000000e+000
          4.179104477594e+001 0.000000000000e+000 0.000000000000e+000
          4.328358208936e+001 0.000000000000e+000 0.000000000000e+000
          4.477611940279e+001 0.000000000000e+000 0.000000000000e+000
          4.626865671621e+001 0.000000000000e+000 0.000000000000e+000
          4.776119402964e+001 0.000000000000e+000 0.000000000000e+000
          4.925373134306e+001 0.000000000000e+000 0.000000000000e+000
          5.074626865649e+001 0.000000000000e+000 0.000000000000e+000
          5.223880596991e+001 0.000000000000e+000 0.000000000000e+000
          5.373134328334e+001 0.000000000000e+000 0.000000000000e+000
          5.522388059676e+001 0.000000000000e+000 0.000000000000e+000
          5.671641791019e+001 0.000000000000e+000 0.000000000000e+000
          5.820895522361e+001 0.000000000000e+000 0.000000000000e+000
          5.970149253704e+001 0.000000000000e+000 0.000000000000e+000
          6.119402985046e+001 0.000000000000e+000 0.000000000000e+000
          6.268656716389e+001 0.000000000000e+000 0.000000000000e+000
          6.417910447732e+001 0.000000000000e+000 0.000000000000e+000
          6.567164179075e+001 0.000000000000e+000 0.000000000000e+000
          6.716417910418e+001 0.000000000000e+000 0.000000000000e+000
          6.865671641761e+001 0.000000000000e+000 0.000000000000e+000
          7.014925373104e+001 0.000000000000e+000 0.000000000000e+000
          7.164179104447e+001 0.000000000000e+000 0.000000000000e+000
          7.313432835790e+001 0.000000000000e+000 0.000000000000e+000
          7.462686567133e+001 0.000000000000e+000 0.000000000000e+000
          7.611940298476e+001 0.000000000000e+000 0.000000000000e+000
          7.761194029819e+001 0.000000000000e+000 0.000000000000e+000
          7.910447761162e+001 0.000000000000e+000 0.000000000000e+000
          8.059701492505e+001 0.000000000000e+000 0.000000000000e+000
          8.208955223848e+001 0.000000000000e+000 0.000000000000e+000
          8.358208955191e+001 0.000000000000e+000 0.000000000000e+000
          8.507462686534e+001 0.000000000000e+000 0.000000000000e+000
          8.656716417877e+001 0.000000000000e+000 0.000000000000e+000
          8.805970149220e+001 0.000000000000e+000 0.000000000000e+000
          8.955223880563e+001 0.000000000000e+000 0.000000000000e+000
          9.104477611907e+001 0.000000000000e+000 0.000000000000e+000
          9.253731343250e+001 0.000000000000e+000 0.000000000000e+000
          9.402985074593e+001 0.000000000000e+000 0.000000000000e+000
          9.552238805936e+001 0.000000000000e+000 0.000000000000e+000
          9.701492537279e+001 0.000000000000e+000 0.000000000000e+000
          9.850746268622e+001 0.000000000000e+000 0.000000000000e+000
          9.999999999965e+001 0.000000000000e+000 0.000000000000e+000
          1.014925373131e+002 0.000000000000e+000 0.000000000000e+000
          1.029850746265e+002 0.000000000000e+000 0.000000000000e+000
          1.044776119399e+002 0.000000000000e+000 0.000000000000e+000
          1.059701492534e+002 0.000000000000e+000 0.000000000000e+000
          1.074626865668e+002 0.000000000000e+000 0.000000000000e+000
          1.089552238802e+002 0.000000000000e+000 0.000000000000e+000
          1.104477611937e+002 0.000000000000e+000 0.000000000000e+000
          1.119402985071e+002 0.000000000000e+000 0.000000000000e+000
          1.134328358205e+002 0.000000000000e+000 0.000000000000e+000
          1.149253731340e+002 0.000000000000e+000 0.000000000000e+000
          1.164179104474e+002 0.000000000000e+000 0.000000000000e+000
          1.179104477608e+002 0.000000000000e+000 0.000000000000e+000
          1.194029850742e+002 0.000000000000e+000 0.000000000000e+000
          1.208955223877e+002 0.000000000000e+000 0.000000000000e+000
          1.223880597011e+002 0.000000000000e+000 0.000000000000e+000
          1.238805970145e+002 0.000000000000e+000 0.000000000000e+000
          1.253731343280e+002 0.000000000000e+000 0.000000000000e+000
          1.268656716414e+002 0.000000000000e+000 0.000000000000e+000
          1.283582089548e+002 0.000000000000e+000 0.000000000000e+000
          1.298507462683e+002 0.000000000000e+000 0.000000000000e+000
          1.313432835817e+002 0.000000000000e+000 0.000000000000e+000
          1.328358208952e+002 0.000000000000e+000 0.000000000000e+000
          1.343283582086e+002 0.000000000000e+000 0.000000000000e+000
          1.358208955220e+002 0.000000000000e+000 0.000000000000e+000
          1.373134328355e+002 0.000000000000e+000 0.000000000000e+000
          1.388059701489e+002 0.000000000000e+000 0.000000000000e+000
          1.402985074624e+002 0.000000000000e+000 0.000000000000e+000
          1.417910447758e+002 0.000000000000e+000 0.000000000000e+000
          1.432835820892e+002 0.000000000000e+000 0.000000000000e+000
          1.447761194027e+002 0.000000000000e+000 0.000000000000e+000
          1.462686567161e+002 0.000000000000e+000 0.000000000000e+000
          1.477611940296e+002 0.000000000000e+000 0.000000000000e+000
          1.492537313430e+002 0.000000000000e+000 0.000000000000e+000
          1.507462686564e+002 0.000000000000e+000 0.000000000000e+000
          1.522388059699e+002 0.000000000000e+000 0.000000000000e+000
          1.537313432833e+002 0.000000000000e+000 0.000000000000e+000
          1.552238805968e+002 0.000000000000e+000 0.000000000000e+000
          1.567164179102e+002 0.000000000000e+000 0.000000000000e+000
          1.582089552237e+002 0.000000000000e+000 0.000000000000e+000
          1.597014925371e+002 0.000000000000e+000 0.000000000000e+000
          1.611940298505e+002 0.000000000000e+000 0.000000000000e+000
          1.626865671640e+002 0.000000000000e+000 0.000000000000e+000
          1.641791044774e+002 0.000000000000e+000 0.000000000000e+000
          1.656716417909e+002 0.000000000000e+000 0.000000000000e+000
          1.671641791043e+002 0.000000000000e+000 0.000000000000e+000
          1.686567164177e+002 0.000000000000e+000 0.000000000000e+000
          1.701492537312e+002 0.000000000000e+000 0.000000000000e+000
          1.716417910446e+002 0.000000000000e+000 0.000000000000e+000
          1.731343283581e+002 0.000000000000e+000 0.000000000000e+000
          1.746268656715e+002 0.000000000000e+000 0.000000000000e+000
          1.761194029849e+002 0.000000000000e+000 0.000000000000e+000
          1.776119402984e+002 0.000000000000e+000 0.000000000000e+000
          1.791044776118e+002 0.000000000000e+000 0.000000000000e+000
          1.805970149253e+002 0.000000000000e+000 0.000000000000e+000
          1.820895522387e+002 0.000000000000e+000 0.000000000000e+000
          1.835820895521e+002 0.000000000000e+000 0.000000000000e+000
          1.850746268656e+002 0.000000000000e+000 0.000000000000e+000
          1.865671641790e+002 0.000000000000e+000 0.000000000000e+000
          1.880597014925e+002 0.000000000000e+000 0.000000000000e+000
          1.895522388059e+002 0.000000000000e+000 0.000000000000e+000
          1.910447761194e+002 0.000000000000e+000 0.000000000000e+000
          1.925373134328e+002 0.000000000000e+000 0.000000000000e+000
          1.940298507462e+002 0.000000000000e+000 0.000000000000e+000
          1.955223880597e+002 0.000000000000e+000 0.000000000000e+000
          1.970149253731e+002 0.000000000000e+000 0.000000000000e+000
          1.985074626866e+002 0.000000000000e+000 0.000000000000e+000
          2.000000000000e+002 1.428571428570e+000 0.000000000000e+000
          2.000000000000e+002 2.857142857140e+000 0.000000000000e+000
[...]
      <PointData Scalars="MEAN_PRESSURE">
        <DataArray type="Float64" Name="MEAN_PRESSURE" format="ascii">
          2.000000000000e+002 1.996159536228e+002 1.996159520868e+002 2.000000000000e+002 1.993684441053e+002 1.981868114038e+002 1.974468794762e+002 1.969850361512e+002 1.967248684341e+002 1.966011777537e+002 1.965564320718e+002 1.965595275226e+002 1.965867913195e+002 1.966251908713e+002 1.966675538500e+002 1.967106755366e+002 1.967532932274e+002 1.967951010176e+002 1.968362165499e+002 1.968768383706e+002 1.969171565000e+002 1.969572755262e+002 1.969972918593e+002 1.970372402306e+002 1.970771308850e+002 1.971169609943e+002 1.971567265108e+002 1.971964151889e+002 1.972360116386e+002 1.972755053258e+002 1.973148837107e+002 1.973541383510e+002 1.973932536702e+002 1.974322216289e+002 1.974710314907e+002 1.975096713285e+002 1.975481353305e+002 1.975864088985e+002 1.976244865192e+002 1.976623614381e+002 1.977000184295e+002 1.977374455982e+002 1.977746449261e+002 1.978116014835e+002 1.978483110137e+002 1.978847633949e+002 1.979209561834e+002 1.979568665273e+002 1.979925086634e+002 1.980278579007e+002 1.980629111234e+002 1.980976650783e+002 1.981321191630e+002 1.981662427192e+002 1.982000542395e+002 1.982335402604e+002 1.982666985545e+002 1.982995111299e+002 1.983319777568e+002 1.983641119127e+002 1.983958733886e+002 1.984272774110e+002 1.984583173563e+002 1.984889955567e+002 1.985192972112e+002 1.985492211758e+002 1.985787646857e+002 1.986079198529e+002 1.986366900834e+002 1.986650628536e+002 1.986930479712e+002 1.987206260648e+002 1.987478074152e+002 1.987745821993e+002 1.988009478229e+002 1.988269080651e+002 1.988524514589e+002 1.988775885780e+002 1.989023061721e+002 1.989266079605e+002 1.989504844372e+002 1.989739474214e+002 1.989969840149e+002 1.990196014958e+002 1.990417920295e+002 1.990635568275e+002 1.990848979989e+002 1.991058122305e+002 1.991262991707e+002 1.991463593342e+002 1.991659923270e+002 1.991851987442e+002 1.992039786828e+002 1.992223289985e+002 1.992402478545e+002 1.992577450156e+002 1.992748104797e+002 1.992914500334e+002 1.993076646865e+002 1.993234563568e+002 1.993388212503e+002 1.993537579129e+002 1.993682762980e+002 1.993823667920e+002 1.993960355603e+002 1.994092840471e+002 1.994221145378e+002 1.994345235932e+002 1.994465100494e+002 1.994580839496e+002 1.994692359337e+002 1.994799720129e+002 1.994902946965e+002 1.995002072547e+002 1.995097036815e+002 1.995187839952e+002 1.995274587338e+002 1.995357182983e+002 1.995435685131e+002 1.995510113339e+002 1.995580502528e+002 1.995646819928e+002 1.995709040746e+002 1.995767206774e+002 1.995821319844e+002 1.995871356697e+002 1.995917407693e+002 1.995959475911e+002 1.995997459024e+002 1.996031510975e+002 1.996061605814e+002 1.996087489101e+002 1.996109434851e+002 1.996127400104e+002 1.996141593307e+002 1.996151180613e+002 1.996157350666e+002 1.996159322719e+002 1.996159123902e+002 1.996159555675e+002 1.996159469046e+002 1.996159426603e+002 1.996159348685e+002 1.996159297560e+002 1.996159333017e+002 1.996159337110e+002 1.996159239608e+002 1.996159509094e+002 1.996159099476e+002 1.996159305757e+002 1.996157336836e+002 1.996151169639e+002 1.996141583811e+002 1.996127390730e+002 1.996109427629e+002 1.996087494578e+002 1.996061623608e+002 1.996031531317e+002 1.995997478121e+002 1.995959493756e+002 1.995917412120e+002 1.995871364354e+002 1.995821317591e+002 1.995767193882e+002 1.995709031180e+002 1.995646800540e+002 1.995580478225e+002 1.995510166169e+002 1.995435728644e+002 1.995357194096e+002 1.995274584794e+002 1.995187853480e+002 1.995097002096e+002 1.995002067141e+002 1.994902977642e+002 1.994799761503e+002 1.994692359201e+002 1.994580826790e+002 1.994465076532e+002 1.994345222042e+002 1.994221126237e+002 1.994092848376e+002 1.993960370430e+002 1.993823639183e+002 1.993682744362e+002 1.993537560736e+002 1.993388207584e+002 1.993234551844e+002 1.993076658044e+002 1.992914512912e+002 1.992748071751e+002 1.992577431094e+002 1.992402465370e+002 1.992223291730e+002 1.992039783460e+002 1.991851961147e+002 1.991659934533e+002 1.991463601210e+002 1.991262995408e+002 1.991058122192e+002 1.990848992754e+002 1.990635612960e+002 1.990417956866e+002 1.990196012448e+002 1.989969883355e+002 1.989739476476e+002 1.989504853956e+002 1.989266039966e+002 1.989023077776e+002 1.988775882410e+002 1.988524560614e+002 1.988269099602e+002 1.988009493116e+002 1.987745796225e+002 1.987478047128e+002 1.987206277154e+002 1.986930464798e+002 1.986650660424e+002 1.986366884854e+002 1.986079197860e+002 1.985787616471e+002 1.985492193893e+002 1.985192977109e+002 1.984889961987e+002 1.984583211478e+002 1.984272760401e+002 1.983958679734e+002 1.983641000295e+002 1.983319784729e+002 1.982995105054e+002 1.982666966956e+002 1.982335440505e+002 1.982000570869e+002 1.981662444288e+002 1.981321101803e+002 1.980976630230e+002 1.980629089193e+002 1.980278479505e+002 1.979925015774e+002 1.979568669477e+002 1.979209492982e+002 1.978847628986e+002 1.978483046907e+002 1.978115903930e+002 1.977746301504e+002 1.977374259241e+002 1.976999882079e+002 1.976623265786e+002 1.976244471536e+002 1.975863574351e+002 1.975480703891e+002 1.975095896238e+002 1.974709262609e+002 1.974320891119e+002 1.973930872013e+002 1.973539271844e+002 1.973146172002e+002 1.972751682533e+002 1.972355843216e+002 1.971958745479e+002 1.971560452287e+002 1.971161013951e+002 1.970760424782e+002 1.970358642795e+002 1.969955520919e+002 1.969550721194e+002 1.969143607505e+002 1.968733060774e+002 1.968317552760e+002 1.967894533488e+002 1.967461868999e+002 1.967017460955e+002 1.966563672494e+002 1.966112082385e+002 1.965697436820e+002 1.965391790460e+002 1.965331895932e+002 1.965722046003e+002 1.966975570855e+002 1.969603750222e+002 1.974198873309e+002 1.981685924366e+002 1.993470063452e+002 2.000000000000e+002 2.000000000000e+002 2.000000000000e+002 2.000000000000e+002 2.000000000000e+002 2.000000000000e+002 2.000000000000e+002 2.000000000000e+002 2.000000000000e+002 2.000000000000e+002 2.000000000000e+002 2.000000000000e+002 2.000000000000e+002 1.996069495977e+002 1.965474914320e+002 1.995796473976e+002 1.995317956734e+002 1.994630066269e+002 1.993744847972e+002 1.992652537340e+002 1.969762905495e+002 1.991363734539e+002 1.972580461414e+002 1.975312936947e+002 1.977977434433e+002 1.981803042336e+002 1.984116091410e+002 1.986223432563e+002 1.988139696863e+002 1.989855076351e+002 1.967319153430e+002 1.979925068656e+002 1.990635512587e+002 1.990625623638e+002 1.989023069383e+002 1.987206266658e+002 1.985192985185e+002 1.982995128527e+002 1.995590847839e+002 1.995016740388e+002 1.994235833890e+002 1.982995061859e+002 1.985138878108e+002 1.987228350433e+002 1.988978992568e+002 1.993252745138e+002 1.992039703351e+002 1.971147617008e+002 1.973886141041e+002 1.976666032415e+002 1.992048394681e+002 1.993236048601e+002 1.994222337021e+002 1.995001965337e+002 1.995580400102e+002 1.976619454696e+002 1.973927257794e+002 1.971162933341e+002 1.995955274496e+002 1.995952749951e+002 1.979157901262e+002 1.980722369830e+002 1.966147904994e+002 1.968382460014e+002 1.996127991535e+002 1.969729817973e+002 1.996128488895e+002 1.969659447797e+002 1.965936099698e+002 1.968708477924e+002 1.978764806292e+002 1.981025995315e+002 1.995794818510e+002 1.989855112697e+002 1.995316327485e+002 1.988139797644e+002 1.986223536304e+002 1.984116175566e+002 1.981903652995e+002 1.991361799179e+002 1.994639005162e+002 1.993766199770e+002 1.992678439771e+002 1.972549841952e+002 1.975254855127e+002 1.991365676456e+002 1.992663217652e+002 1.993753664739e+002 1.994637045400e+002 1.984115586685e+002 1.986222980489e+002 1.988139262862e+002 1.995316327677e+002 1.989859256230e+002 1.995794751178e+002 1.977931451198e+002 1.975288602370e+002 1.972554443496e+002 1.969756056207e+002 1.996058164410e+002 1.996060037272e+002 1.965303175886e+002 1.969978593021e+002 1.982069096302e+002 1.977647665941e+002 1.996142953307e+002 1.975001547018e+002 1.967362079736e+002 1.965612739713e+002 1.967293391016e+002 1.979721093090e+002 1.978971284163e+002 1.980870770238e+002 1.965965173047e+002 1.968444442387e+002 1.979933073843e+002 1.995985908507e+002 1.994333232695e+002 1.994906502608e+002 1.993373337799e+002 1.995512606592e+002 1.992205320640e+002 1.989225320739e+002 1.985442006988e+002 1.983265310597e+002 1.987451516781e+002 1.971549095668e+002 1.976281623074e+002 1.973578566089e+002 1.990439094937e+002 1.979925035248e+002 1.996149322606e+002 1.980220781253e+002 1.996149322396e+002 1.979892339143e+002 1.989352328610e+002 1.987574725826e+002 1.985598819920e+002 1.983435667834e+002 1.991783227439e+002 1.990329617598e+002 1.990924579204e+002 1.993018676315e+002 1.977134791128e+002 1.994045539173e+002 1.974460863509e+002 1.994866141569e+002 1.971704307404e+002 1.995483671899e+002 1.995480842199e+002 1.995674084999e+002 1.994862166330e+002 1.995131903360e+002 1.994033253113e+002 1.994384064717e+002 1.993003612507e+002 1.993436556864e+002 1.971763583432e+002 1.992280082239e+002 1.991782685545e+002 1.974498396481e+002 1.973415011809e+002 1.983437387016e+002 1.985610892631e+002 1.987596239742e+002 1.984790829526e+002 1.986838928195e+002 1.989341633357e+002 1.988694751181e+002 1.976217484324e+002 1.990925131430e+002 1.990371460732e+002 1.995669633410e+002 1.970616830835e+002 1.995116023305e+002 1.973456669491e+002 1.994370763420e+002 1.976164361019e+002 1.993419957251e+002 1.982494442593e+002 1.984749173598e+002 1.986802121783e+002 1.988656170109e+002 1.992261324691e+002 1.967125060299e+002 1.995898539909e+002 1.995896491398e+002 1.981091895341e+002 1.978687094634e+002 1.968923828596e+002 1.990906472292e+002 1.986847119579e+002 1.988706332689e+002 1.984805002861e+002 1.982501169416e+002 1.970647037902e+002 1.974428131964e+002 1.995665707294e+002 1.977112109863e+002 1.995122213255e+002 1.994056888515e+002 1.991799763357e+002 1.993032581984e+002 1.970761633823e+002 1.995998847840e+002 1.995998840451e+002 1.980479235074e+002 1.965702305186e+002 1.995902881490e+002 1.991076796994e+002 1.991645333254e+002 1.992901925242e+002 1.977381052026e+002 1.993950052956e+002 1.974739218849e+002 1.984560148338e+002 1.986629568856e+002 1.988505612319e+002 1.995710185356e+002 1.970355709772e+002 1.995194622648e+002 1.968166867638e+002 1.982363645302e+002 1.996108512486e+002 1.996106057874e+002 1.995865452847e+002 1.982709054165e+002 1.976953488942e+002 1.981361436005e+002 1.978428827184e+002 1.966884181722e+002 1.969215352902e+002 1.965433334531e+002 1.966437099214e+002 1.969222536043e+002 1.989493631584e+002 1.987737409729e+002 1.985778317014e+002 1.983630887567e+002 1.994805206153e+002 1.971939990694e+002 1.995439825426e+002 1.990186822944e+002 1.992397704597e+002 1.994795530013e+002 1.993543904458e+002 1.995432710434e+002 1.994470128346e+002 1.989521854334e+002 1.987736679545e+002 1.985799843012e+002 1.983654308641e+002 1.971979186259e+002 1.975874825936e+002 1.973131617245e+002 1.973130486551e+002 1.994470044178e+002 1.975847727122e+002 1.993543695111e+002 1.992409826600e+002 1.990186621131e+002 1.996150339855e+002 1.996150930342e+002 1.981200035885e+002 1.980026000265e+002 1.996113002514e+002 1.967367585937e+002 1.996031231573e+002 1.996036792371e+002 1.965905645346e+002 1.996093247635e+002 1.965431378605e+002 1.967748453660e+002 1.978335223645e+002 1.981466009476e+002 1.969448015326e+002 1.965651643974e+002 1.978085791153e+002 1.967981580167e+002 1.967910036134e+002 1.981704317243e+002 1.966815947428e+002 1.979004080991e+002 1.980441024898e+002 1.966516177948e+002 1.974619966043e+002 1.991715613900e+002 1.992952680932e+002 1.993991606992e+002 1.995177836823e+002 1.995702787173e+002 1.990998686163e+002 1.982405704035e+002 1.984646297226e+002 1.986708245457e+002 1.988576330903e+002 1.979388294709e+002 1.967982175742e+002 1.980513926899e+002 1.979290469616e+002 1.995877574264e+002 1.996085773025e+002 1.970467532893e+002 1.977205181760e+002 1.966302305984e+002 1.968694159744e+002 1.996123619675e+002 1.966697549158e+002 1.989728424377e+002 1.987997058596e+002 1.986065472644e+002 1.983943731083e+002 1.991458696406e+002 1.991267810383e+002 1.989984063479e+002 1.992755878113e+002 1.993830049002e+002 1.977728849385e+002 1.994697369988e+002 1.975077753899e+002 1.995360839034e+002 1.972337354442e+002 1.995765806415e+002 1.995358027802e+002 1.994699139320e+002 1.993834320894e+002 1.992761051378e+002 1.972335072457e+002 1.975066537980e+002 1.983955273100e+002 1.986063189645e+002 1.987995001119e+002 1.995764474717e+002 1.969975110177e+002 1.982032561395e+002 1.995798862580e+002 1.996046454746e+002 1.996046481396e+002 1.970166205399e+002 1.969117622673e+002 1.965304442067e+002 1.980310827195e+002 1.995617738104e+002 1.995055216369e+002 1.994150409468e+002 1.993147410888e+002 1.991919446374e+002 1.970942717955e+002 1.974148061271e+002 1.976832616237e+002 1.988894294566e+002 1.985034957709e+002 1.982826669627e+002 1.987029357313e+002 1.990773322577e+002 1.995932281167e+002 1.996132814550e+002 1.996132826615e+002 1.995302187618e+002 1.993776176921e+002 1.992690529893e+002 1.975227438462e+002 1.984169505992e+002 1.986272378288e+002 1.988183846404e+002 1.971054500309e+002 1.979546101704e+002 1.991401161415e+002 1.991327363155e+002 1.981895908511e+002 1.996154925256e+002 1.986946174845e+002 1.977469520080e+002 1.982259224781e+002 1.992032793245e+002 1.993228680780e+002 1.994216363856e+002 1.995580426387e+002 1.995002215556e+002 1.976637267622e+002 1.973945419532e+002 1.971161273391e+002 1.987206247230e+002 1.989023056285e+002 1.982995066369e+002 1.985192949208e+002 1.995580383807e+002 1.995002003111e+002 1.985192866832e+002 1.987210925054e+002 1.994221024218e+002 1.989025226830e+002 1.993234451160e+002 1.992041423052e+002 1.973932446439e+002 1.990643530857e+002 1.990635500853e+002 1.967725762235e+002 1.978435573120e+002 1.967578278936e+002 1.982531847765e+002 1.980014173733e+002 1.996008979790e+002 1.996005536059e+002 1.980968260160e+002 1.981164073367e+002 1.980177285559e+002 1.991548866389e+002 1.989638687787e+002 1.990068006598e+002 1.991175061946e+002 1.988379835692e+002 1.986489846198e+002 1.984407201787e+002 1.992502413080e+002 1.972925096319e+002 1.975646794021e+002 1.995243240331e+002 1.994531342400e+002 1.993620570999e+002 1.995237632234e+002 1.972922227930e+002 1.994531378072e+002 1.975646234913e+002 1.984407234257e+002 1.986489878071e+002 1.988344268389e+002 1.993620596539e+002 1.992502426942e+002 1.972338667905e+002 1.965520283314e+002 1.996135214411e+002 1.971877750327e+002 1.989863539288e+002 1.989846681001e+002 1.972545461211e+002 1.972540645097e+002 1.994641091294e+002 1.994640157733e+002 1.996101656066e+002 1.966805787013e+002 1.965961546193e+002 1.969999574022e+002 1.967257354412e+002 1.996155300285e+002 1.987999664038e+002 1.996155538212e+002 1.987147618352e+002 1.966177531025e+002 1.995841558866e+002 1.995842518071e+002 1.992658434659e+002 1.993749713118e+002 1.975299584009e+002 1.988128379769e+002 1.984102358759e+002 1.986210852264e+002 1.995317156400e+002 1.968639087484e+002 1.968716299840e+002 1.965492104368e+002 1.981532531435e+002 1.978259664338e+002 1.965550221555e+002 1.969397686362e+002 1.971259089757e+002 1.978925899308e+002 1.969017337696e+002 1.995950037067e+002 1.995950043095e+002 1.978656384095e+002 1.981276274967e+002 1.995896510394e+002 1.977653109710e+002 1.981338116577e+002 1.980936796445e+002 1.995125704849e+002 1.970621362145e+002 1.995669031489e+002 1.984563245186e+002 1.986627285932e+002 1.988508150176e+002 1.991089194848e+002 1.974475054126e+002 1.994040760802e+002 1.977144843805e+002 1.993012823592e+002 1.991630604978e+002 1.995793306889e+002 1.967921745085e+002 1.980484480110e+002 1.979640155719e+002 1.977920735478e+002 1.966196463140e+002 1.996155910295e+002 1.988857675669e+002 1.996155924698e+002 1.989812518529e+002 1.966327231333e+002 1.969776231979e+002 1.979870408603e+002 1.978937211995e+002 1.996103669868e+002 1.976488675456e+002 1.983089509286e+002 1.968679802732e+002 1.981579003511e+002 1.966952972563e+002 1.992274397176e+002 1.993430864776e+002 1.994379530918e+002 1.976136550387e+002 1.973428176843e+002 1.994478828430e+002 1.995427606665e+002 1.993554815224e+002 1.994788833712e+002 1.992423294806e+002 1.973102051304e+002 1.975819002271e+002 1.972006400260e+002 1.983674652344e+002 1.987776996862e+002 1.985817921095e+002 1.989532689158e+002 1.995478990274e+002 1.994859673613e+002 1.971730024129e+002 1.990355193581e+002 1.983411164895e+002 1.985576260641e+002 1.987554264234e+002 1.989334044502e+002 1.990172847274e+002 1.990635541033e+002 1.989022900105e+002 1.985192837289e+002 1.987206230859e+002 1.982995003884e+002 1.995580458813e+002 1.995002018848e+002 1.994222859534e+002 1.992039741110e+002 1.993236707331e+002 1.971168466624e+002 1.973926197624e+002 1.976622995125e+002 1.978224658530e+002 1.969272725207e+002 1.996100093911e+002 1.966320524804e+002 1.990146250245e+002 1.989557109359e+002 1.987800273262e+002 1.985847837128e+002 1.983706575340e+002 1.994772316387e+002 1.995416133355e+002 1.972063436839e+002 1.994490881771e+002 1.993566984467e+002 1.992436302455e+002 1.973060250868e+002 1.975790371659e+002 1.979804880688e+002 1.995955305259e+002 1.979518545299e+002 1.995984742993e+002 1.990606810682e+002 1.990654125483e+002 1.989075748240e+002 1.987264290289e+002 1.985257781036e+002 1.983065407292e+002 1.995571332702e+002 1.994989081408e+002 1.994197726932e+002 1.993205704636e+002 1.992064295997e+002 1.974004263342e+002 1.992023723530e+002 1.985232890903e+002 1.987169819094e+002 1.989055533665e+002 1.993224317687e+002 1.994212819128e+002 1.976647736369e+002 1.995003200965e+002 1.973956370009e+002 1.995581268241e+002 1.971156701979e+002 1.967330950113e+002 1.994920146517e+002 1.971494482199e+002 1.995522382809e+002 1.985426652870e+002 1.989212888934e+002 1.987432989025e+002 1.983248635619e+002 1.973632916733e+002 1.994315951056e+002 1.976334535458e+002 1.993351921927e+002 1.992176336379e+002 1.990474147912e+002 1.965611930075e+002 1.996155616400e+002 1.988202743236e+002 1.996026361897e+002 1.996081778319e+002 1.996081751787e+002 1.979438316616e+002 1.980405919417e+002 1.968554259398e+002 1.971224369367e+002 1.995867992972e+002 1.965571341786e+002 1.995949805988e+002 1.995948656997e+002 1.969650067322e+002 1.991623528858e+002 1.992886265668e+002 1.977425433617e+002 1.993937217102e+002 1.974776209594e+002 1.988526292512e+002 1.986629831398e+002 1.984585376204e+002 1.991085822270e+002 1.995718791217e+002 1.970260116987e+002 1.995203028476e+002 1.977907133362e+002 1.981866530274e+002 1.979198756783e+002 1.966097126851e+002 1.965524397672e+002 1.996144770975e+002 1.976537481601e+002 1.996144766637e+002 1.975919356432e+002 1.983111560243e+002 1.976499280794e+002 1.982255190676e+002 1.966456995887e+002 1.995741757770e+002 1.971794780455e+002 1.978731797102e+002 1.980774758735e+002 1.979139689422e+002 1.968431651034e+002 1.966084952553e+002 1.967428133565e+002 1.977054590658e+002 1.966070457898e+002 1.967880759508e+002 1.979362169489e+002 1.965324706533e+002 1.965719632597e+002 1.980127441776e+002 1.978524361611e+002 1.980848278119e+002 1.978885034294e+002 1.996059913631e+002 1.967259714710e+002 1.970517533926e+002 1.990799729579e+002 1.991163619110e+002 1.995740089473e+002 1.995235404835e+002 1.995638149261e+002 1.995080275568e+002 1.993940549583e+002 1.992890302884e+002 1.974767684327e+002 1.991896205028e+002 1.991559930530e+002 1.982684506074e+002 1.982210177231e+002 1.984909864706e+002 1.984429397988e+002 1.986510138540e+002 1.986948973597e+002 1.988791228323e+002 1.988397351544e+002 1.969371075613e+002 1.996127161492e+002 1.996126881553e+002 1.996143547579e+002 1.996143555083e+002 1.972885824430e+002 1.996139054513e+002 1.989384510554e+002 1.987610789544e+002 1.985638578030e+002 1.983478871017e+002 1.990308315363e+002 1.990952827823e+002 1.991757678221e+002 1.992997098255e+002 1.977185074300e+002 1.994027935668e+002 1.974512929868e+002 1.994852476368e+002 1.971757373273e+002 1.995473862505e+002 1.995473719414e+002 1.994852266763e+002 1.995678412992e+002 1.994027113754e+002 1.992996095149e+0