<?xml version="1.0"?>
<VTKFile type="UnstructuredGrid" version="0.1" byte_order="LittleEndian">
  <UnstructuredGrid>
    <Piece NumberOfPoints="2604" NumberOfCells="4910">
      <Points>
        <DataArray type="Float64" NumberOfComponents="3" format="ascii">
          0.000000000000e+000 0.000000000000e+000 0.000000000000e+000
          2.000000000000e+002 0.000000000000e+000 0.000000000000e+000
          2.000000000000e+002 2.000000000000e+001 0.000000000000e+000
          0.000000000000e+000 2.000000000000e+001 0.000000000000e+000
          1.492537313427e+000 0.000000000000e+000 0.000000000000e+000
          2.985074626854e+000 0.000000000000e+000 0.000000000000e+000
          4.477611940281e+000 0.000000000000e+000 0.000000000000e+000
          5.970149253708e+000 0.000000000000e+000 0.000000000000e+000
          7.462686567135e+000 0.000000000000e+000 0.000000000000e+000
          8.955223880561e+000 0.000000000000e+000 0.000000000000e+000
          1.044776119399e+001 0.000000000000e+000 0.000000000000e+000
          1.194029850741e+001 0.000000000000e+000 0.000000000000e+000
          1.343283582084e+001 0.000000000000e+000 0.000000000000e+000
          1.492537313427e+001 0.000000000000e+000 0.000000000000e+000
          1.641791044770e+001 0.000000000000e+000 0.000000000000e+000
          1.791044776112e+001 0.000000000000e+000 0.000000000000e+000
          1.940298507455e+001 0.000000000000e+000 0.000000000000e+000
          2.089552238798e+001 0.000000000000e+000 0.000000000000e+000
          2.238805970141e+001 0.000000000000e+000 0.000000000000e+000
          2.388059701484e+001 0.000000000000e+000 0.000000000000e+000
          2.537313432826e+001 0.000000000000e+000 0.000000000000e+000
          2.686567164169e+001 0.000000000000e+000 0.000000000000e+000
          2.835820895511e+001 0.000000000000e+000 0.000000000000e+000
          2.985074626854e+001 0.000000000000e+000 0.000000000000e+000
          3.134328358196e+001 0.000000000000e+000 0.000000000000e+000
          3.283582089539e+001 0.000000000000e+000 0.000000000000e+000
          3.432835820881e+001 0.000000000000e+000 0.000000000000e+000
          3.582089552224e+001 0.000000000000e+000 0.000000000000e+000
          3.731343283566e+001 0.000000000000e+000 0.000000000000e+000
          3.880597014909e+001 0.000000000000e+000 0.000000000000e+000
          4.029850746251e+001 0.000000000000e+000 0.000000000000e+000
          4.179104477594e+001 0.000000000000e+000 0.000000000000e+000
          4.328358208936e+001 0.000000000000e+000 0.000000000000e+000
          4.477611940279e+001 0.000000000000e+000 0.000000000000e+000
          4.626865671621e+001 0.000000000000e+000 0.000000000000e+000
          4.776119402964e+001 0.000000000000e+000 0.000000000000e+000
          4.925373134306e+001 0.000000000000e+000 0.000000000000e+000
          5.074626865649e+001 0.000000000000e+000 0.000000000000e+000
          5.223880596991e+001 0.000000000000e+000 0.000000000000e+000
          5.373134328334e+001 0.000000000000e+000 0.000000000000e+000
          5.522388059676e+001 0.000000000000e+000 0.000000000000e+000
          5.671641791019e+001 0.000000000000e+000 0.000000000000e+000
          5.820895522361e+001 0.000000000000e+000 0.000000000000e+000
          5.970149253704e+001 0.000000000000e+000 0.000000000000e+000
          6.119402985046e+001 0.000000000000e+000 0.000000000000e+000
          6.268656716389e+001 0.000000000000e+000 0.000000000000e+000
          6.417910447732e+001 0.000000000000e+000 0.000000000000e+000
          6.567164179075e+001 0.000000000000e+000 0.000000000000e+000
          6.716417910418e+001 0.000000000000e+000 0.000000000000e+000
          6.865671641761e+001 0.000000000000e+000 0.000000000000e+000
          7.014925373104e+001 0.000000000000e+000 0.000000000000e+000
          7.164179104447e+001 0.000000000000e+000 0.000000000000e+000
          7.313432835790e+001 0.000000000000e+000 0.000000000000e+000
          7.462686567133e+001 0.000000000000e+000 0.000000000000e+000
          7.611940298476e+001 0.000000000000e+000 0.000000000000e+000
          7.761194029819e+001 0.000000000000e+000 0.000000000000e+000
          7.910447761162e+001 0.000000000000e+000 0.000000000000e+000
          8.059701492505e+001 0.000000000000e+000 0.000000000000e+000
          8.208955223848e+001 0.000000000000e+000 0.000000000000e+000
          8.358208955191e+001 0.000000000000e+000 0.000000000000e+000
          8.507462686534e+001 0.000000000000e+000 0.000000000000e+000
          8.656716417877e+001 0.000000000000e+000 0.000000000000e+000
          8.805970149220e+001 0.000000000000e+000 0.000000000000e+000
          8.955223880563e+001 0.000000000000e+000 0.000000000000e+000
          9.104477611907e+001 0.000000000000e+000 0.000000000000e+000
          9.253731343250e+001 0.000000000000e+000 0.000000000000e+000
          9.402985074593e+001 0.000000000000e+000 0.000000000000e+000
          9.552238805936e+001 0.000000000000e+000 0.000000000000e+000
          9.701492537279e+001 0.000000000000e+000 0.000000000000e+000
          9.850746268622e+001 0.000000000000e+000 0.000000000000e+000
          9.999999999965e+001 0.000000000000e+000 0.000000000000e+000
          1.014925373131e+002 0.000000000000e+000 0.000000000000e+000
          1.029850746265e+002 0.000000000000e+000 0.000000000000e+000
          1.044776119399e+002 0.000000000000e+000 0.000000000000e+000
          1.059701492534e+002 0.000000000000e+000 0.000000000000e+000
          1.074626865668e+002 0.000000000000e+000 0.000000000000e+000
          1.089552238802e+002 0.000000000000e+000 0.000000000000e+000
          1.104477611937e+002 0.000000000000e+000 0.000000000000e+000
          1.119402985071e+002 0.000000000000e+000 0.000000000000e+000
          1.134328358205e+002 0.000000000000e+000 0.000000000000e+000
          1.149253731340e+002 0.000000000000e+000 0.000000000000e+000
          1.164179104474e+002 0.000000000000e+000 0.000000000000e+000
          1.179104477608e+002 0.000000000000e+000 0.000000000000e+000
          1.194029850742e+002 0.000000000000e+000 0.000000000000e+000
          1.208955223877e+002 0.000000000000e+000 0.000000000000e+000
          1.223880597011e+002 0.000000000000e+000 0.000000000000e+000
          1.238805970145e+002 0.000000000000e+000 0.000000000000e+000
          1.253731343280e+002 0.000000000000e+000 0.000000000000e+000
          1.268656716414e+002 0.000000000000e+000 0.000000000000e+000
          1.283582089548e+002 0.000000000000e+000 0.000000000000e+000
          1.298507462683e+002 0.000000000000e+000 0.000000000000e+000
          1.313432835817e+002 0.000000000000e+000 0.000000000000e+000
          1.328358208952e+002 0.000000000000e+000 0.000000000000e+000
          1.343283582086e+002 0.000000000000e+000 0.000000000000e+000
          1.358208955220e+002 0.000000000000e+000 0.000000000000e+000
          1.373134328355e+002 0.000000000000e+000 0.000000000000e+000
          1.388059701489e+002 0.000000000000e+000 0.000000000000e+000
          1.402985074624e+002 0.000000000000e+000 0.000000000000e+000
          1.417910447758e+002 0.000000000000e+000 0.000000000000e+000
          1.432835820892e+002 0.000000000000e+000 0.000000000000e+000
          1.447761194027e+002 0.000000000000e+000 0.000000000000e+000
          1.462686567161e+002 0.000000000000e+000 0.000000000000e+000
          1.477611940296e+002 0.000000000000e+000 0.000000000000e+000
          1.492537313430e+002 0.000000000000e+000 0.000000000000e+000
          1.507462686564e+002 0.000000000000e+000 0.000000000000e+000
          1.522388059699e+002 0.000000000000e+000 0.000000000000e+000
          1.537313432833e+002 0.000000000000e+000 0.000000000000e+000
          1.552238805968e+002 0.000000000000e+000 0.000000000000e+000
          1.567164179102e+002 0.000000000000e+000 0.000000000000e+000
          1.582089552237e+002 0.000000000000e+000 0.000000000000e+000
          1.597014925371e+002 0.000000000000e+000 0.000000000000e+000
          1.611940298505e+002 0.000000000000e+000 0.000000000000e+000
          1.626865671640e+002 0.000000000000e+000 0.000000000000e+000
          1.641791044774e+002 0.000000000000e+000 0.000000000000e+000
          1.656716417909e+002 0.000000000000e+000 0.000000000000e+000
          1.671641791043e+002 0.000000000000e+000 0.000000000000e+000
          1.686567164177e+002 0.000000000000e+000 0.000000000000e+000
          1.701492537312e+002 0.000000000000e+000 0.000000000000e+000
          1.716417910446e+002 0.000000000000e+000 0.000000000000e+000
          1.731343283581e+002 0.000000000000e+000 0.000000000000e+000
          1.746268656715e+002 0.000000000000e+000 0.000000000000e+000
          1.761194029849e+002 0.000000000000e+000 0.000000000000e+000
          1.776119402984e+002 0.000000000000e+000 0.000000000000e+000
          1.791044776118e+002 0.000000000000e+000 0.000000000000e+000
          1.805970149253e+002 0.000000000000e+000 0.000000000000e+000
          1.820895522387e+002 0.000000000000e+000 0.000000000000e+000
          1.835820895521e+002 0.000000000000e+000 0.000000000000e+000
          1.850746268656e+002 0.000000000000e+000 0.000000000000e+000
          1.865671641790e+002 0.000000000000e+000 0.000000000000e+000
          1.880597014925e+002 0.000000000000e+000 0.000000000000e+000
          1.895522388059e+002 0.000000000000e+000 0.000000000000e+000
          1.910447761194e+002 0.000000000000e+000 0.000000000000e+000
          1.925373134328e+002 0.000000000000e+000 0.000000000000e+000
          1.940298507462e+002 0.000000000000e+000 0.000000000000e+000
          1.955223880597e+002 0.000000000000e+000 0.000000000000e+000
          1.970149253731e+002 0.000000000000e+000 0.000000000000e+000
          1.985074626866e+002 0.000000000000e+000 0.000000000000e+000
          2.000000000000e+002 1.428571428570e+000 0.000000000000e+000
          2.000000000000e+002 2.857142857140e+000 0.000000000000e+000
[...]
      <PointData Scalars="MEAN_PRESSURE">
        <DataArray type="Float64" Name="MEAN_PRESSURE" format="ascii">
          2.000000000000e+002 1.989374684248e+002 1.989374670288e+002 2.000000000000e+002 1.995329798680e+002 1.985758024119e+002 1.979166943315e+002 1.974446166856e+002 1.971215565895e+002 1.969145081265e+002 1.967870877350e+002 1.967192631811e+002 1.966910088840e+002 1.966889278885e+002 1.967025718248e+002 1.967257038288e+002 1.967537739829e+002 1.967840980011e+002 1.968151317146e+002 1.968460734326e+002 1.968765897186e+002 1.969065361965e+002 1.969359821445e+002 1.969650117267e+002 1.969937163957e+002 1.970221695811e+002 1.970504392823e+002 1.970785700396e+002 1.971065891563e+002 1.971345178191e+002 1.971623662116e+002 1.971901404928e+002 1.972178386525e+002 1.972454603474e+002 1.972730019861e+002 1.973004584692e+002 1.973278271595e+002 1.973551007132e+002 1.973822760908e+002 1.974093495405e+002 1.974363130083e+002 1.974631599246e+002 1.974898908337e+002 1.975164975783e+002 1.975429774143e+002 1.975693245474e+002 1.975955371105e+002 1.976216025417e+002 1.976475275851e+002 1.976732985680e+002 1.976989130610e+002 1.977243685151e+002 1.977496637956e+002 1.977747815327e+002 1.977997307137e+002 1.978245031103e+002 1.978490965073e+002 1.978734999481e+002 1.978977121420e+002 1.979217394798e+002 1.979455582932e+002 1.979691757807e+002 1.979925869067e+002 1.980157916826e+002 1.980387802310e+002 1.980615504387e+002 1.980840992142e+002 1.981064203714e+002 1.981285143313e+002 1.981503720317e+002 1.981719976571e+002 1.981933778140e+002 1.982145169550e+002 1.982354072835e+002 1.982560452861e+002 1.982764314076e+002 1.982965565394e+002 1.983164253599e+002 1.983360274315e+002 1.983553630436e+002 1.983744239510e+002 1.983932156463e+002 1.984117275397e+002 1.984299621963e+002 1.984479121702e+002 1.984655759207e+002 1.984829525826e+002 1.985000375536e+002 1.985168282192e+002 1.985333225213e+002 1.985495177887e+002 1.985654119973e+002 1.985810027801e+002 1.985962853990e+002 1.986112560247e+002 1.986259192246e+002 1.986402652115e+002 1.986542957259e+002 1.986680090113e+002 1.986814040210e+002 1.986944753795e+002 1.987072194643e+002 1.987196413999e+002 1.987317313184e+002 1.987434915433e+002 1.987549207701e+002 1.987660184125e+002 1.987767793377e+002 1.987872002363e+002 1.987972868685e+002 1.988070293716e+002 1.988164303947e+002 1.988254898075e+002 1.988342081870e+002 1.988425784167e+002 1.988505984395e+002 1.988582751349e+002 1.988655984532e+002 1.988725714784e+002 1.988791940902e+002 1.988854675864e+002 1.988913874912e+002 1.988969500598e+002 1.989021574096e+002 1.989070082845e+002 1.989114992941e+002 1.989156371834e+002 1.989194211091e+002 1.989228408982e+002 1.989259093431e+002 1.989286232848e+002 1.989309590881e+002 1.989329406560e+002 1.989345635866e+002 1.989358462398e+002 1.989367129361e+002 1.989372707959e+002 1.989374491186e+002 1.989374311412e+002 1.989374701835e+002 1.989374623494e+002 1.989374585101e+002 1.989374514650e+002 1.989374468419e+002 1.989374500473e+002 1.989374504170e+002 1.989374415999e+002 1.989374659660e+002 1.989374289260e+002 1.989374475777e+002 1.989372695383e+002 1.989367119371e+002 1.989358453751e+002 1.989345627336e+002 1.989329399974e+002 1.989309595725e+002 1.989286248757e+002 1.989259111591e+002 1.989228425972e+002 1.989194226887e+002 1.989156375642e+002 1.989114999581e+002 1.989070080719e+002 1.989021562582e+002 1.988969492061e+002 1.988913857829e+002 1.988854654577e+002 1.988791986466e+002 1.988725752143e+002 1.988655994007e+002 1.988582749036e+002 1.988505995530e+002 1.988425754585e+002 1.988342076857e+002 1.988254923242e+002 1.988164337890e+002 1.988070293482e+002 1.987972858132e+002 1.987871982577e+002 1.987767781743e+002 1.987660168414e+002 1.987549213690e+002 1.987434926767e+002 1.987317290435e+002 1.987196399258e+002 1.987072180160e+002 1.986944749791e+002 1.986814031251e+002 1.986680098690e+002 1.986542966800e+002 1.986402627829e+002 1.986259178384e+002 1.986112550779e+002 1.985962855489e+002 1.985810025706e+002 1.985654101549e+002 1.985495186146e+002 1.985333231038e+002 1.985168285018e+002 1.985000375620e+002 1.984829534595e+002 1.984655789493e+002 1.984479146318e+002 1.984299620352e+002 1.984117304147e+002 1.983932158134e+002 1.983744245745e+002 1.983553604687e+002 1.983360284322e+002 1.983164251099e+002 1.982965594103e+002 1.982764325615e+002 1.982560461765e+002 1.982354056501e+002 1.982145152562e+002 1.981933787740e+002 1.981719967048e+002 1.981503738923e+002 1.981285133314e+002 1.981064202837e+002 1.980840973796e+002 1.980615493459e+002 1.980387804663e+002 1.980157919922e+002 1.979925890167e+002 1.979691749455e+002 1.979455551778e+002 1.979217327488e+002 1.978977124405e+002 1.978734994750e+002 1.978490953227e+002 1.978245049680e+002 1.977997319903e+002 1.977747821095e+002 1.977496585299e+002 1.977243668585e+002 1.976989111794e+002 1.976732923877e+002 1.976475226703e+002 1.976216012521e+002 1.975955315903e+002 1.975693218178e+002 1.975429710053e+002 1.975164878683e+002 1.974898781692e+002 1.974631434048e+002 1.974362893934e+002 1.974093214050e+002 1.973822428665e+002 1.973550578621e+002 1.973277730681e+002 1.973003902552e+002 1.972729147714e+002 1.972453503353e+002 1.972177000988e+002 1.971899647670e+002 1.971621441910e+002 1.971342368154e+002 1.971062325358e+002 1.970781183339e+002 1.970498703108e+002 1.970214524342e+002 1.969928087959e+002 1.969638647400e+002 1.969345263674e+002 1.969046847551e+002 1.968742419277e+002 1.968431338078e+002 1.968114512561e+002 1.967794781534e+002 1.967479987965e+002 1.967185469698e+002 1.966937821963e+002 1.966778225068e+002 1.966780640554e+002 1.967042831404e+002 1.967706192824e+002 1.968933359191e+002 1.971024654859e+002 1.974275305286e+002 1.978979209007e+002 1.985636721551e+002 1.995170275031e+002 2.000000000000e+002 2.000000000000e+002 2.000000000000e+002 2.000000000000e+002 2.000000000000e+002 2.000000000000e+002 2.000000000000e+002 2.000000000000e+002 2.000000000000e+002 2.000000000000e+002 2.000000000000e+002 2.000000000000e+002 2.000000000000e+002 1.989293352093e+002 1.968164941875e+002 1.989047805058e+002 1.988621192494e+002 1.988015848918e+002 1.987249648081e+002 1.986322268491e+002 1.969204793237e+002 1.985251062049e+002 1.971221470954e+002 1.973158350178e+002 1.975065150418e+002 1.977851492102e+002 1.979573860880e+002 1.981174900088e+002 1.982662643703e+002 1.984024992094e+002 1.967386441218e+002 1.976475262003e+002 1.984655721238e+002 1.984647668707e+002 1.983360278968e+002 1.981933781688e+002 1.980387809693e+002 1.978735008198e+002 1.988863902491e+002 1.988354994852e+002 1.987672915706e+002 1.978734971913e+002 1.980346729942e+002 1.981950930776e+002 1.983325293328e+002 1.986829498369e+002 1.985809968457e+002 1.970205785681e+002 1.972145475818e+002 1.974123850569e+002 1.985817185477e+002 1.986815310467e+002 1.987661221969e+002 1.988341992038e+002 1.988854586728e+002 1.974090506408e+002 1.972174493077e+002 1.970216098826e+002 1.989190430680e+002 1.989188159159e+002 1.975917934911e+002 1.977057379913e+002 1.966803522706e+002 1.968164466745e+002 1.989346170165e+002 1.974392622512e+002 1.989346619726e+002 1.974413723126e+002 1.966852077804e+002 1.968414549240e+002 1.975633304206e+002 1.977279865084e+002 1.989046317556e+002 1.984025015880e+002 1.988619745219e+002 1.982662706414e+002 1.981174961471e+002 1.979573908133e+002 1.977925744173e+002 1.985249469444e+002 1.988023662867e+002 1.987267970525e+002 1.986344041923e+002 1.971199988251e+002 1.973117052442e+002 1.985252659311e+002 1.986331247496e+002 1.987257213785e+002 1.988021946426e+002 1.979573493659e+002 1.981174561599e+002 1.982662314271e+002 1.988619745813e+002 1.984028356074e+002 1.989046258229e+002 1.975032015674e+002 1.973141004111e+002 1.971202909317e+002 1.969199023482e+002 1.989283128716e+002 1.989284818111e+002 1.967663622338e+002 1.969363845617e+002 1.978047973764e+002 1.974827868791e+002 1.989359691891e+002 1.979725773830e+002 1.967417860929e+002 1.968240301511e+002 1.967364312725e+002 1.976326833805e+002 1.975782732119e+002 1.977166080136e+002 1.966809173719e+002 1.968212597186e+002 1.976481093041e+002 1.989218005856e+002 1.987757376893e+002 1.988258031127e+002 1.986932088123e+002 1.988794166025e+002 1.985947895244e+002 1.983521180696e+002 1.980577275746e+002 1.978936471658e+002 1.982124520012e+002 1.970491045810e+002 1.973849014517e+002 1.971927598317e+002 1.984496316255e+002 1.976475241137e+002 1.989365449581e+002 1.984358391653e+002 1.989365449318e+002 1.984108014801e+002 1.983622432735e+002 1.982220526610e+002 1.980696815749e+002 1.979063722221e+002 1.985597176709e+002 1.984407624452e+002 1.984891237745e+002 1.986631026878e+002 1.974459626133e+002 1.987508375167e+002 1.972552829744e+002 1.988222580473e+002 1.970600840424e+002 1.988768404033e+002 1.988765881457e+002 1.988938242598e+002 1.988219082345e+002 1.988456566848e+002 1.987497765411e+002 1.987801533994e+002 1.986618272412e+002 1.986985976862e+002 1.970643543774e+002 1.986010265321e+002 1.985596730107e+002 1.972579581650e+002 1.971811959376e+002 1.979064959788e+002 1.980706003891e+002 1.982237298084e+002 1.980082886257e+002 1.981649173101e+002 1.983613896408e+002 1.983100073057e+002 1.973803202478e+002 1.984891691946e+002 1.984441498345e+002 1.988934261707e+002 1.969825007845e+002 1.988442544037e+002 1.971841195057e+002 1.987789970103e+002 1.973765229485e+002 1.986971815601e+002 1.978362906748e+002 1.980051337685e+002 1.981620697147e+002 1.983069539398e+002 1.985994600801e+002 1.967257188936e+002 1.989139413740e+002 1.989137573169e+002 1.977328233000e+002 1.975577134647e+002 1.968576377191e+002 1.984876453187e+002 1.981655514957e+002 1.983109242841e+002 1.980093622086e+002 1.978367910577e+002 1.969847419011e+002 1.972529675247e+002 1.988930754171e+002 1.974443362653e+002 1.988448008728e+002 1.987518168249e+002 1.985610866285e+002 1.986642789186e+002 1.969930104329e+002 1.989229659695e+002 1.989229653178e+002 1.976879552241e+002 1.966780750868e+002 1.989143315194e+002 1.985015660763e+002 1.985483135569e+002 1.986532339504e+002 1.974636315188e+002 1.987426040209e+002 1.972750462373e+002 1.979908478312e+002 1.981487477430e+002 1.982950647898e+002 1.988970523964e+002 1.969636990540e+002 1.988511980840e+002 1.968002692523e+002 1.978265965624e+002 1.989328573207e+002 1.989326356622e+002 1.989109690209e+002 1.978522231110e+002 1.974329677665e+002 1.977526259768e+002 1.975390581645e+002 1.970944061874e+002 1.968797050243e+002 1.966998563932e+002 1.966926220468e+002 1.968803874950e+002 1.983735276971e+002 1.982347500344e+002 1.980833868996e+002 1.979209757348e+002 1.988169109684e+002 1.970768120332e+002 1.988729393662e+002 1.984292173462e+002 1.986108540838e+002 1.988160620362e+002 1.987077585272e+002 1.988723063972e+002 1.987876372751e+002 1.983757844742e+002 1.982346921682e+002 1.980850330677e+002 1.979227306023e+002 1.970796172384e+002 1.973558624607e+002 1.971611378361e+002 1.971610441244e+002 1.987876304422e+002 1.973539298725e+002 1.987077423968e+002 1.986118715795e+002 1.984292038216e+002 1.989366369133e+002 1.989366903007e+002 1.985210835405e+002 1.984256862786e+002 1.989332629101e+002 1.971523278217e+002 1.989258841115e+002 1.989263854998e+002 1.969330857006e+002 1.989314789510e+002 1.967455152052e+002 1.971904551828e+002 1.975323018881e+002 1.977603138366e+002 1.968971979124e+002 1.967064950987e+002 1.975143189401e+002 1.967860016828e+002 1.967808246903e+002 1.977778682010e+002 1.967081763991e+002 1.975806475865e+002 1.976851622515e+002 1.966915864304e+002 1.972665836219e+002 1.985541194842e+002 1.986575202553e+002 1.987461843485e+002 1.988497137102e+002 1.988963904417e+002 1.984951747552e+002 1.978297118721e+002 1.979973557173e+002 1.981548188585e+002 1.983006466324e+002 1.976085046541e+002 1.967861532622e+002 1.976904895759e+002 1.976014030849e+002 1.989120575966e+002 1.989308042072e+002 1.969718386796e+002 1.974510123906e+002 1.969839308577e+002 1.973281745253e+002 1.989342220136e+002 1.967013453209e+002 1.983923310781e+002 1.982550736565e+002 1.981053700394e+002 1.979444347253e+002 1.985329203658e+002 1.985172249455e+002 1.984128740552e+002 1.986409211224e+002 1.987322806620e+002 1.974886238501e+002 1.988074683347e+002 1.972991017697e+002 1.988659233347e+002 1.971049258664e+002 1.989020320616e+002 1.988656735960e+002 1.988076228716e+002 1.987326479397e+002 1.986413572694e+002 1.971048148636e+002 1.972983139729e+002 1.979453006547e+002 1.981051946952e+002 1.982549120383e+002 1.989019128061e+002 1.969359609053e+002 1.978020969638e+002 1.989049944174e+002 1.989272568006e+002 1.989272591870e+002 1.969500626890e+002 1.968724027874e+002 1.967317767220e+002 1.976756542802e+002 1.988887904786e+002 1.988388904173e+002 1.987598969846e+002 1.986740070400e+002 1.985710070058e+002 1.970059107172e+002 1.972331015592e+002 1.974243083034e+002 1.983258079771e+002 1.980267841504e+002 1.978609650395e+002 1.981796548504e+002 1.984767859383e+002 1.989169745270e+002 1.989350528434e+002 1.989350539385e+002 1.988607208476e+002 1.987276532374e+002 1.986354206722e+002 1.973097530968e+002 1.979614029945e+002 1.981212484709e+002 1.982697313427e+002 1.975879794486e+002 1.976199635397e+002 1.985281832109e+002 1.985221155067e+002 1.977920020338e+002 1.989370514926e+002 1.989929259665e+002 1.974699857661e+002 1.978188606072e+002 1.985804222985e+002 1.986809051064e+002 1.987656048851e+002 1.988854609611e+002 1.988342211492e+002 1.974103242867e+002 1.972187321166e+002 1.970214713497e+002 1.981933769693e+002 1.983360270554e+002 1.978734973483e+002 1.980387788655e+002 1.988854572589e+002 1.988342023383e+002 1.980387741543e+002 1.981937421254e+002 1.987660086751e+002 1.983362017084e+002 1.986813954730e+002 1.985811401903e+002 1.972178322153e+002 1.984662238804e+002 1.984655713499e+002 1.967670413600e+002 1.975395458390e+002 1.967569819625e+002 1.978390687909e+002 1.976540177874e+002 1.989238788037e+002 1.989235685494e+002 1.977237545256e+002 1.977381235651e+002 1.976659081128e+002 1.985403503948e+002 1.983851362056e+002 1.984196343863e+002 1.985096151525e+002 1.982851498095e+002 1.981379776870e+002 1.979793066404e+002 1.986196256277e+002 1.971465411153e+002 1.973396111848e+002 1.988554997854e+002 1.987929704472e+002 1.987143162491e+002 1.988550030225e+002 1.971463020382e+002 1.987929733785e+002 1.973395647763e+002 1.979793084281e+002 1.981379795364e+002 1.982823497525e+002 1.987143182473e+002 1.986196266252e+002 1.977090250170e+002 1.966894485865e+002 1.989352697435e+002 1.976666319999e+002 1.984031787042e+002 1.984018241966e+002 1.971196817687e+002 1.971193231532e+002 1.988025482370e+002 1.988024665362e+002 1.989322381672e+002 1.967064498921e+002 1.969043608811e+002 1.969378632797e+002 1.967339439907e+002 1.989370854036e+002 1.990821743574e+002 1.989371069110e+002 1.990174643957e+002 1.966844219993e+002 1.989088242293e+002 1.989089103307e+002 1.986327224002e+002 1.987253821492e+002 1.973148832920e+002 1.982653743714e+002 1.979563523346e+002 1.981165230338e+002 1.988620481418e+002 1.968360628711e+002 1.968421010554e+002 1.967094895822e+002 1.977652130472e+002 1.975268523212e+002 1.967188733583e+002 1.968932973231e+002 1.970285383266e+002 1.975749885028e+002 1.968647565264e+002 1.989185716929e+002 1.989185722178e+002 1.975554934775e+002 1.977463652102e+002 1.989137588873e+002 1.974831780749e+002 1.977509118012e+002 1.977214474398e+002 1.988451093523e+002 1.969828356482e+002 1.988933725285e+002 1.979910821430e+002 1.981485714014e+002 1.982952654488e+002 1.985025812247e+002 1.972562916009e+002 1.987504251953e+002 1.974466833793e+002 1.986626075797e+002 1.985470964550e+002 1.989044965333e+002 1.967817397956e+002 1.976883381186e+002 1.976267982792e+002 1.975024316687e+002 1.966820863825e+002 1.989371405531e+002 1.991485186116e+002 1.989371418623e+002 1.992199278664e+002 1.970064009680e+002 1.969214203298e+002 1.976435480872e+002 1.975758066174e+002 1.989324200300e+002 1.973996989248e+002 1.978805339811e+002 1.968392470615e+002 1.977686368332e+002 1.967166171549e+002 1.986005526455e+002 1.986981123248e+002 1.987797592233e+002 1.973745386792e+002 1.971821061906e+002 1.987883960167e+002 1.988718533823e+002 1.987086930288e+002 1.988154761788e+002 1.986129983137e+002 1.971590516332e+002 1.973518852536e+002 1.970815500632e+002 1.979242532426e+002 1.982378455176e+002 1.980864141466e+002 1.983766509226e+002 1.988764237465e+002 1.988216902280e+002 1.970619164095e+002 1.984428344610e+002 1.979045421345e+002 1.980679621079e+002 1.982204584491e+002 1.983607859854e+002 1.984280921116e+002 1.984655740594e+002 1.983360170531e+002 1.980387724298e+002 1.981933760160e+002 1.978734939483e+002 1.988854637502e+002 1.988342036404e+002 1.987661676676e+002 1.985809995449e+002 1.986815872052e+002 1.970220525018e+002 1.972173824266e+002 1.974093040407e+002 1.975243309979e+002 1.968841190057e+002 1.989320971236e+002 1.970009593824e+002 1.984259459200e+002 1.983786048925e+002 1.982396657389e+002 1.980887032200e+002 1.979266455923e+002 1.988140292034e+002 1.988708338684e+002 1.970855598690e+002 1.987894464011e+002 1.987097337601e+002 1.986140885217e+002 1.971560849318e+002 1.973498426760e+002 1.976387792502e+002 1.989190458220e+002 1.976179630059e+002 1.989216957385e+002 1.984632399416e+002 1.984670847257e+002 1.983402160982e+002 1.981978872925e+002 1.980437081562e+002 1.978787384895e+002 1.988846498756e+002 1.988330647659e+002 1.987639912063e+002 1.986789537939e+002 1.985830424908e+002 1.972229188121e+002 1.985796677940e+002 1.980418146920e+002 1.981905494312e+002 1.983386080995e+002 1.986805348933e+002 1.987652982059e+002 1.974110740996e+002 1.988343081743e+002 1.972195100541e+002 1.988855361844e+002 1.970211521018e+002 1.967395397028e+002 1.988270015522e+002 1.970452124302e+002 1.988802870756e+002 1.980565583180e+002 1.983511277535e+002 1.982110067391e+002 1.978924029154e+002 1.971966051019e+002 1.987742388182e+002 1.973886810429e+002 1.986913866747e+002 1.985923723758e+002 1.984524719201e+002 1.968443232412e+002 1.989371139825e+002 1.990943481553e+002 1.989254452167e+002 1.989304436437e+002 1.989304412624e+002 1.976121362012e+002 1.976825986418e+002 1.968295061500e+002 1.970260581704e+002 1.989111973057e+002 1.968590559071e+002 1.989185510118e+002 1.989184476255e+002 1.969122320029e+002 1.985465119882e+002 1.986519117131e+002 1.974668180891e+002 1.987414983189e+002 1.972776746101e+002 1.982966986430e+002 1.981487695321e+002 1.979927551484e+002 1.985023059073e+002 1.988978225191e+002 1.969568102550e+002 1.988519414347e+002 1.975014505613e+002 1.977898316103e+002 1.975947534090e+002 1.966870764093e+002 1.967443637545e+002 1.989361334902e+002 1.981141718777e+002 1.989361331035e+002 1.980636783891e+002 1.978821758554e+002 1.974004570825e+002 1.978185613590e+002 1.966932685969e+002 1.988998783047e+002 1.976557758018e+002 1.975609467269e+002 1.977095739105e+002 1.975904722113e+002 1.968201765697e+002 1.966782330852e+002 1.967460387604e+002 1.974402132903e+002 1.966775084338e+002 1.967787698618e+002 1.976066093966e+002 1.967688967371e+002 1.966909126212e+002 1.976622744254e+002 1.975459571696e+002 1.977149578549e+002 1.975720287951e+002 1.989284706751e+002 1.971298136866e+002 1.969754813079e+002 1.984789362510e+002 1.985086766514e+002 1.988997288145e+002 1.988548057870e+002 1.988906127705e+002 1.988410994632e+002 1.987417839681e+002 1.986522506431e+002 1.972770729704e+002 1.985690774512e+002 1.985412624961e+002 1.978503999769e+002 1.978152317919e+002 1.980173020700e+002 1.979809800603e+002 1.981395403221e+002 1.981734316287e+002 1.983176422040e+002 1.982865291316e+002 1.974082829400e+002 1.989345420067e+002 1.989345167392e+002 1.989360228939e+002 1.989360235786e+002 1.977747652018e+002 1.989356167828e+002 1.983648099379e+002 1.982248637677e+002 1.980727135130e+002 1.979096004479e+002 1.984390389149e+002 1.984914287388e+002 1.985576009251e+002 1.986612761742e+002 1.974495672472e+002 1.987493177326e+002 1.972589761639e+002 1.988210579036e+002 1.970638455582e+002 1.988759670962e+002 1.988759542645e+002 1.988210393057e+002 1.988942109537e+002 1.987492468915e+002 1.986611914801e+0