<?xml version="1.0"?>
<VTKFile type="UnstructuredGrid" version="0.1" byte_order="LittleEndian">
  <UnstructuredGrid>
    <Piece NumberOfPoints="2604" NumberOfCells="4910">
      <Points>
        <DataArray type="Float64" NumberOfComponents="3" format="ascii">
          0.000000000000e+000 0.000000000000e+000 0.000000000000e+000
          2.000000000000e+002 0.000000000000e+000 0.000000000000e+000
          2.000000000000e+002 2.000000000000e+001 0.000000000000e+000
          0.000000000000e+000 2.000000000000e+001 0.000000000000e+000
          1.492537313427e+000 0.000000000000e+000 0.000000000000e+000
          2.985074626854e+000 0.000000000000e+000 0.000000000000e+000
          4.477611940281e+000 0.000000000000e+000 0.000000000000e+000
          5.970149253708e+000 0.000000000000e+000 0.000000000000e+000
          7.462686567135e+000 0.000000000000e+000 0.000000000000e+000
          8.955223880561e+000 0.000000000000e+000 0.000000000000e+000
          1.044776119399e+001 0.000000000000e+000 0.000000000000e+000
          1.194029850741e+001 0.000000000000e+000 0.000000000000e+000
          1.343283582084e+001 0.000000000000e+000 0.000000000000e+000
          1.492537313427e+001 0.000000000000e+000 0.000000000000e+000
          1.641791044770e+001 0.000000000000e+000 0.000000000000e+000
          1.791044776112e+001 0.000000000000e+000 0.000000000000e+000
          1.940298507455e+001 0.000000000000e+000 0.000000000000e+000
          2.089552238798e+001 0.000000000000e+000 0.000000000000e+000
          2.238805970141e+001 0.000000000000e+000 0.000000000000e+000
          2.388059701484e+001 0.000000000000e+000 0.000000000000e+000
          2.537313432826e+001 0.000000000000e+000 0.000000000000e+000
          2.686567164169e+001 0.000000000000e+000 0.000000000000e+000
          2.835820895511e+001 0.000000000000e+000 0.000000000000e+000
          2.985074626854e+001 0.000000000000e+000 0.000000000000e+000
          3.134328358196e+001 0.000000000000e+000 0.000000000000e+000
          3.283582089539e+001 0.000000000000e+000 0.000000000000e+000
          3.432835820881e+001 0.000000000000e+000 0.000000000000e+000
          3.582089552224e+001 0.000000000000e+000 0.000000000000e+000
          3.731343283566e+001 0.000000000000e+000 0.000000000000e+000
          3.880597014909e+001 0.000000000000e+000 0.000000000000e+000
          4.029850746251e+001 0.000000000000e+000 0.000000000000e+000
          4.179104477594e+001 0.000000000000e+000 0.000000000000e+000
          4.328358208936e+001 0.000000000000e+000 0.000000000000e+000
          4.477611940279e+001 0.000000000000e+000 0.000000000000e+000
          4.626865671621e+001 0.000000000000e+000 0.000000000000e+000
          4.776119402964e+001 0.000000000000e+000 0.000000000000e+000
          4.925373134306e+001 0.000000000000e+000 0.000000000000e+000
          5.074626865649e+001 0.000000000000e+000 0.000000000000e+000
          5.223880596991e+001 0.000000000000e+000 0.000000000000e+000
          5.373134328334e+001 0.000000000000e+000 0.000000000000e+000
          5.522388059676e+001 0.000000000000e+000 0.000000000000e+000
          5.671641791019e+001 0.000000000000e+000 0.000000000000e+000
          5.820895522361e+001 0.000000000000e+000 0.000000000000e+000
          5.970149253704e+001 0.000000000000e+000 0.000000000000e+000
          6.119402985046e+001 0.000000000000e+000 0.000000000000e+000
          6.268656716389e+001 0.000000000000e+000 0.000000000000e+000
          6.417910447732e+001 0.000000000000e+000 0.000000000000e+000
          6.567164179075e+001 0.000000000000e+000 0.000000000000e+000
          6.716417910418e+001 0.000000000000e+000 0.000000000000e+000
          6.865671641761e+001 0.000000000000e+000 0.000000000000e+000
          7.014925373104e+001 0.000000000000e+000 0.000000000000e+000
          7.164179104447e+001 0.000000000000e+000 0.000000000000e+000
          7.313432835790e+001 0.000000000000e+000 0.000000000000e+000
          7.462686567133e+001 0.000000000000e+000 0.000000000000e+000
          7.611940298476e+001 0.000000000000e+000 0.000000000000e+000
          7.761194029819e+001 0.000000000000e+000 0.000000000000e+000
          7.910447761162e+001 0.000000000000e+000 0.000000000000e+000
          8.059701492505e+001 0.000000000000e+000 0.000000000000e+000
          8.208955223848e+001 0.000000000000e+000 0.000000000000e+000
          8.358208955191e+001 0.000000000000e+000 0.000000000000e+000
          8.507462686534e+001 0.000000000000e+000 0.000000000000e+000
          8.656716417877e+001 0.000000000000e+000 0.000000000000e+000
          8.805970149220e+001 0.000000000000e+000 0.000000000000e+000
          8.955223880563e+001 0.000000000000e+000 0.000000000000e+000
          9.104477611907e+001 0.000000000000e+000 0.000000000000e+000
          9.253731343250e+001 0.000000000000e+000 0.000000000000e+000
          9.402985074593e+001 0.000000000000e+000 0.000000000000e+000
          9.552238805936e+001 0.000000000000e+000 0.000000000000e+000
          9.701492537279e+001 0.000000000000e+000 0.000000000000e+000
          9.850746268622e+001 0.000000000000e+000 0.000000000000e+000
          9.999999999965e+001 0.000000000000e+000 0.000000000000e+000
          1.014925373131e+002 0.000000000000e+000 0.000000000000e+000
          1.029850746265e+002 0.000000000000e+000 0.000000000000e+000
          1.044776119399e+002 0.000000000000e+000 0.000000000000e+000
          1.059701492534e+002 0.000000000000e+000 0.000000000000e+000
          1.074626865668e+002 0.000000000000e+000 0.000000000000e+000
          1.089552238802e+002 0.000000000000e+000 0.000000000000e+000
          1.104477611937e+002 0.000000000000e+000 0.000000000000e+000
          1.119402985071e+002 0.000000000000e+000 0.000000000000e+000
          1.134328358205e+002 0.000000000000e+000 0.000000000000e+000
          1.149253731340e+002 0.000000000000e+000 0.000000000000e+000
          1.164179104474e+002 0.000000000000e+000 0.000000000000e+000
          1.179104477608e+002 0.000000000000e+000 0.000000000000e+000
          1.194029850742e+002 0.000000000000e+000 0.000000000000e+000
          1.208955223877e+002 0.000000000000e+000 0.000000000000e+000
          1.223880597011e+002 0.000000000000e+000 0.000000000000e+000
          1.238805970145e+002 0.000000000000e+000 0.000000000000e+000
          1.253731343280e+002 0.000000000000e+000 0.000000000000e+000
          1.268656716414e+002 0.000000000000e+000 0.000000000000e+000
          1.283582089548e+002 0.000000000000e+000 0.000000000000e+000
          1.298507462683e+002 0.000000000000e+000 0.000000000000e+000
          1.313432835817e+002 0.000000000000e+000 0.000000000000e+000
          1.328358208952e+002 0.000000000000e+000 0.000000000000e+000
          1.343283582086e+002 0.000000000000e+000 0.000000000000e+000
          1.358208955220e+002 0.000000000000e+000 0.000000000000e+000
          1.373134328355e+002 0.000000000000e+000 0.000000000000e+000
          1.388059701489e+002 0.000000000000e+000 0.000000000000e+000
          1.402985074624e+002 0.000000000000e+000 0.000000000000e+000
          1.417910447758e+002 0.000000000000e+000 0.000000000000e+000
          1.432835820892e+002 0.000000000000e+000 0.000000000000e+000
          1.447761194027e+002 0.000000000000e+000 0.000000000000e+000
          1.462686567161e+002 0.000000000000e+000 0.000000000000e+000
          1.477611940296e+002 0.000000000000e+000 0.000000000000e+000
          1.492537313430e+002 0.000000000000e+000 0.000000000000e+000
          1.507462686564e+002 0.000000000000e+000 0.000000000000e+000
          1.522388059699e+002 0.000000000000e+000 0.000000000000e+000
          1.537313432833e+002 0.000000000000e+000 0.000000000000e+000
          1.552238805968e+002 0.000000000000e+000 0.000000000000e+000
          1.567164179102e+002 0.000000000000e+000 0.000000000000e+000
          1.582089552237e+002 0.000000000000e+000 0.000000000000e+000
          1.597014925371e+002 0.000000000000e+000 0.000000000000e+000
          1.611940298505e+002 0.000000000000e+000 0.000000000000e+000
          1.626865671640e+002 0.000000000000e+000 0.000000000000e+000
          1.641791044774e+002 0.000000000000e+000 0.000000000000e+000
          1.656716417909e+002 0.000000000000e+000 0.000000000000e+000
          1.671641791043e+002 0.000000000000e+000 0.000000000000e+000
          1.686567164177e+002 0.000000000000e+000 0.000000000000e+000
          1.701492537312e+002 0.000000000000e+000 0.000000000000e+000
          1.716417910446e+002 0.000000000000e+000 0.000000000000e+000
          1.731343283581e+002 0.000000000000e+000 0.000000000000e+000
          1.746268656715e+002 0.000000000000e+000 0.000000000000e+000
          1.761194029849e+002 0.000000000000e+000 0.000000000000e+000
          1.776119402984e+002 0.000000000000e+000 0.000000000000e+000
          1.791044776118e+002 0.000000000000e+000 0.000000000000e+000
          1.805970149253e+002 0.000000000000e+000 0.000000000000e+000
          1.820895522387e+002 0.000000000000e+000 0.000000000000e+000
          1.835820895521e+002 0.000000000000e+000 0.000000000000e+000
          1.850746268656e+002 0.000000000000e+000 0.000000000000e+000
          1.865671641790e+002 0.000000000000e+000 0.000000000000e+000
          1.880597014925e+002 0.000000000000e+000 0.000000000000e+000
          1.895522388059e+002 0.000000000000e+000 0.000000000000e+000
          1.910447761194e+002 0.000000000000e+000 0.000000000000e+000
          1.925373134328e+002 0.000000000000e+000 0.000000000000e+000
          1.940298507462e+002 0.000000000000e+000 0.000000000000e+000
          1.955223880597e+002 0.000000000000e+000 0.000000000000e+000
          1.970149253731e+002 0.000000000000e+000 0.000000000000e+000
          1.985074626866e+002 0.000000000000e+000 0.000000000000e+000
          2.000000000000e+002 1.428571428570e+000 0.000000000000e+000
          2.000000000000e+002 2.857142857140e+000 0.000000000000e+000
[...]
      <PointData Scalars="MEAN_PRESSURE">
        <DataArray type="Float64" Name="MEAN_PRESSURE" format="ascii">
          2.000000000000e+002 1.989452525046e+002 1.989452511043e+002 2.000000000000e+002 1.995316498956e+002 1.985724870885e+002 1.979125024817e+002 1.974402870235e+002 1.971175794504e+002 1.969111488325e+002 1.967844332458e+002 1.967172926518e+002 1.966896382772e+002 1.966880452205e+002 1.967020689425e+002 1.967254828450e+002 1.967537598797e+002 1.967842367637e+002 1.968153886220e+002 1.968464284277e+002 1.968770334340e+002 1.969070660182e+002 1.969365995311e+002 1.969657198128e+002 1.969945187068e+002 1.970230694786e+002 1.970514395109e+002 1.970796727036e+002 1.971077957689e+002 1.971358293502e+002 1.971637832174e+002 1.971916632149e+002 1.972194671108e+002 1.972471944044e+002 1.972748413921e+002 1.973024028897e+002 1.973298762111e+002 1.973572539562e+002 1.973845330589e+002 1.974117097426e+002 1.974387759103e+002 1.974657249592e+002 1.974925574349e+002 1.975192651405e+002 1.975458453188e+002 1.975722921478e+002 1.975986037520e+002 1.976247675095e+002 1.976507901984e+002 1.976766580812e+002 1.977023687185e+002 1.977279195507e+002 1.977533094399e+002 1.977785209352e+002 1.978035630696e+002 1.978284275782e+002 1.978531122382e+002 1.978776060442e+002 1.979019077032e+002 1.979260236391e+002 1.979499300770e+002 1.979736342530e+002 1.979971311125e+002 1.980204206713e+002 1.980434930112e+002 1.980663460141e+002 1.980889765795e+002 1.981113784986e+002 1.981335521998e+002 1.981554885856e+002 1.981771918652e+002 1.981986485915e+002 1.982198632429e+002 1.982408279949e+002 1.982615393254e+002 1.982819976876e+002 1.983021939404e+002 1.983221327890e+002 1.983418037584e+002 1.983612071465e+002 1.983803346807e+002 1.983991918837e+002 1.984177681295e+002 1.984360660011e+002 1.984540780298e+002 1.984718026765e+002 1.984892390803e+002 1.985063826280e+002 1.985232307030e+002 1.985397812467e+002 1.985560315855e+002 1.985719796953e+002 1.985876232079e+002 1.986029573751e+002 1.986179783612e+002 1.986326907587e+002 1.986470847516e+002 1.986611620950e+002 1.986749210336e+002 1.986883605250e+002 1.987014751815e+002 1.987142613753e+002 1.987267242572e+002 1.987388539315e+002 1.987506527373e+002 1.987621193731e+002 1.987732532577e+002 1.987840492474e+002 1.987945040287e+002 1.988046233884e+002 1.988143974366e+002 1.988238288384e+002 1.988329174692e+002 1.988416639143e+002 1.988500610394e+002 1.988581067864e+002 1.988658080635e+002 1.988731547933e+002 1.988801500752e+002 1.988867937937e+002 1.988930872556e+002 1.988990259752e+002 1.989046062000e+002 1.989098300585e+002 1.989146962945e+002 1.989192015105e+002 1.989233524765e+002 1.989271483495e+002 1.989305789272e+002 1.989336570453e+002 1.989363795369e+002 1.989387226943e+002 1.989407104981e+002 1.989423385337e+002 1.989436252203e+002 1.989444946413e+002 1.989450542546e+002 1.989452331377e+002 1.989452151039e+002 1.989452542688e+002 1.989452464102e+002 1.989452425587e+002 1.989452354916e+002 1.989452308539e+002 1.989452340693e+002 1.989452344403e+002 1.989452255955e+002 1.989452500381e+002 1.989452128817e+002 1.989452315920e+002 1.989450529931e+002 1.989444936392e+002 1.989436243530e+002 1.989423376780e+002 1.989407098373e+002 1.989387231802e+002 1.989363811328e+002 1.989336588671e+002 1.989305806317e+002 1.989271499342e+002 1.989233528585e+002 1.989192021766e+002 1.989146960813e+002 1.989098289034e+002 1.989046053436e+002 1.988990242614e+002 1.988930851200e+002 1.988867983650e+002 1.988801538234e+002 1.988731557440e+002 1.988658078316e+002 1.988581079037e+002 1.988500580714e+002 1.988416634115e+002 1.988329199945e+002 1.988238322443e+002 1.988143974133e+002 1.988046223295e+002 1.987945020433e+002 1.987840480802e+002 1.987732516813e+002 1.987621199742e+002 1.987506538748e+002 1.987388516485e+002 1.987267227779e+002 1.987142599219e+002 1.987014747796e+002 1.986883596258e+002 1.986749218945e+002 1.986611630526e+002 1.986470823139e+002 1.986326893672e+002 1.986179774107e+002 1.986029575255e+002 1.985876229975e+002 1.985719778457e+002 1.985560324145e+002 1.985397818314e+002 1.985232309866e+002 1.985063826365e+002 1.984892399606e+002 1.984718057172e+002 1.984540805013e+002 1.984360658393e+002 1.984177710163e+002 1.983991920515e+002 1.983803353067e+002 1.983612045608e+002 1.983418047634e+002 1.983221325381e+002 1.983021968237e+002 1.982819988466e+002 1.982615402198e+002 1.982408263547e+002 1.982198615369e+002 1.981986495559e+002 1.981771909089e+002 1.981554904547e+002 1.981335511956e+002 1.981113784107e+002 1.980889747368e+002 1.980663449167e+002 1.980434932478e+002 1.980204209827e+002 1.979971332327e+002 1.979736334145e+002 1.979499269477e+002 1.979260168774e+002 1.979019080040e+002 1.978776055701e+002 1.978531110495e+002 1.978284294466e+002 1.978035643547e+002 1.977785215177e+002 1.977533041527e+002 1.977279178910e+002 1.977023668339e+002 1.976766518789e+002 1.976507852698e+002 1.976247662262e+002 1.975985982209e+002 1.975722894251e+002 1.975458389042e+002 1.975192554156e+002 1.974925447497e+002 1.974657084107e+002 1.974387522460e+002 1.974116815528e+002 1.973844997775e+002 1.973572110289e+002 1.973298220237e+002 1.973023345558e+002 1.972747540219e+002 1.972470841979e+002 1.972193283137e+002 1.971914871824e+002 1.971635608128e+002 1.971355478688e+002 1.971074385552e+002 1.970792202532e+002 1.970508695730e+002 1.970223510723e+002 1.969936094999e+002 1.969645707740e+002 1.969351411870e+002 1.969052112810e+002 1.968746812012e+002 1.968434828797e+002 1.968117004984e+002 1.967796067635e+002 1.967479719146e+002 1.967183091535e+002 1.966932566680e+002 1.966769132284e+002 1.966766565713e+002 1.967022663727e+002 1.967679095217e+002 1.968899114679e+002 1.970984248308e+002 1.974231442260e+002 1.978936662740e+002 1.985603126093e+002 1.995156568049e+002 2.000000000000e+002 2.000000000000e+002 2.000000000000e+002 2.000000000000e+002 2.000000000000e+002 2.000000000000e+002 2.000000000000e+002 2.000000000000e+002 2.000000000000e+002 2.000000000000e+002 2.000000000000e+002 2.000000000000e+002 2.000000000000e+002 1.989370937031e+002 1.968134995098e+002 1.989124614626e+002 1.988696644705e+002 1.988089353352e+002 1.987320651807e+002 1.986390195034e+002 1.969210510783e+002 1.985315369305e+002 1.971234123819e+002 1.973178382934e+002 1.975092447487e+002 1.977889272638e+002 1.979618013047e+002 1.981224881082e+002 1.982717946420e+002 1.984085077367e+002 1.967385449215e+002 1.976507888106e+002 1.984717988644e+002 1.984709908429e+002 1.983418042258e+002 1.981986489479e+002 1.980434937530e+002 1.978776069208e+002 1.988940128530e+002 1.988429593660e+002 1.987745305661e+002 1.978776032747e+002 1.980393708137e+002 1.982003699900e+002 1.983382933740e+002 1.986899114640e+002 1.985876172506e+002 1.970214731681e+002 1.972161635418e+002 1.974147568362e+002 1.985883413930e+002 1.986884879695e+002 1.987733573791e+002 1.988416549009e+002 1.988930783130e+002 1.974114097417e+002 1.972190765029e+002 1.970225088578e+002 1.989267691151e+002 1.989265412461e+002 1.975948460004e+002 1.977092192398e+002 1.966794564547e+002 1.968167117030e+002 1.989423921316e+002 1.974348824908e+002 1.989424372291e+002 1.974369312787e+002 1.966839866881e+002 1.968417966068e+002 1.975662753621e+002 1.977315510899e+002 1.989123122422e+002 1.984085101251e+002 1.988695192810e+002 1.982718009402e+002 1.981224942740e+002 1.979618060521e+002 1.977963801320e+002 1.985313771273e+002 1.988097192588e+002 1.987339034495e+002 1.986412041330e+002 1.971212558319e+002 1.973136926873e+002 1.985316972012e+002 1.986399204083e+002 1.987328242387e+002 1.988095470601e+002 1.979617644441e+002 1.981224541346e+002 1.982717615787e+002 1.988695193405e+002 1.984088453026e+002 1.989123062905e+002 1.975059187162e+002 1.973160970987e+002 1.971215494637e+002 1.969204731286e+002 1.989360681460e+002 1.989362376175e+002 1.967636615825e+002 1.969370032655e+002 1.978086485860e+002 1.974854265057e+002 1.989437485561e+002 1.979683958832e+002 1.967417013663e+002 1.968210914367e+002 1.967363301458e+002 1.976358901020e+002 1.975812746469e+002 1.977201299880e+002 1.966797865269e+002 1.968215389934e+002 1.976513741111e+002 1.989295353337e+002 1.987830042070e+002 1.988332317814e+002 1.987002044221e+002 1.988870170133e+002 1.986014564530e+002 1.983579508040e+002 1.980625092573e+002 1.978978277159e+002 1.982177909117e+002 1.970501006379e+002 1.973871684639e+002 1.971942927271e+002 1.984558034101e+002 1.976507867167e+002 1.989443261352e+002 1.984322841325e+002 1.989443261089e+002 1.984071826756e+002 1.983681114410e+002 1.982274258111e+002 1.980745066605e+002 1.979105997322e+002 1.985662660698e+002 1.984469036075e+002 1.984954314436e+002 1.986699983865e+002 1.974484622704e+002 1.987580227622e+002 1.972570547956e+002 1.988296752906e+002 1.970611201605e+002 1.988844326080e+002 1.988841795477e+002 1.989014704805e+002 1.988293243522e+002 1.988531491845e+002 1.987569583170e+002 1.987874342843e+002 1.986687186979e+002 1.987056111161e+002 1.970654051289e+002 1.986077144677e+002 1.985662212576e+002 1.972597400374e+002 1.971826846168e+002 1.979107239587e+002 1.980754288151e+002 1.982291089376e+002 1.980128902160e+002 1.981700861104e+002 1.983672548239e+002 1.983156921289e+002 1.973825697595e+002 1.984954770186e+002 1.984503026995e+002 1.989010711280e+002 1.969832671766e+002 1.988517424048e+002 1.971856196413e+002 1.987862741353e+002 1.973787580322e+002 1.987041903104e+002 1.978402589099e+002 1.980097238439e+002 1.981672282997e+002 1.983126280127e+002 1.986061427442e+002 1.967255297383e+002 1.989216513091e+002 1.989214666703e+002 1.977364059778e+002 1.975606371613e+002 1.968580292195e+002 1.984939479167e+002 1.981707225698e+002 1.983166123347e+002 1.980139677170e+002 1.978407611451e+002 1.969855149273e+002 1.972547303863e+002 1.989007192605e+002 1.974468297179e+002 1.988522906274e+002 1.987590052752e+002 1.985676396684e+002 1.986711785326e+002 1.969938105568e+002 1.989307043931e+002 1.989307037393e+002 1.976913697682e+002 1.966766722746e+002 1.989220426874e+002 1.985079163828e+002 1.985548232607e+002 1.986600967797e+002 1.974661983707e+002 1.987497623064e+002 1.972768935820e+002 1.979953856757e+002 1.981538584552e+002 1.983006969263e+002 1.989047088614e+002 1.969644040502e+002 1.988587083527e+002 1.968004739236e+002 1.978305288029e+002 1.989406269006e+002 1.989404045446e+002 1.989186695609e+002 1.978562504258e+002 1.974354179335e+002 1.977562826799e+002 1.975419112372e+002 1.970903538539e+002 1.968801592392e+002 1.966979211908e+002 1.966919309241e+002 1.968808422274e+002 1.983794352971e+002 1.982401684070e+002 1.980882616819e+002 1.979252570745e+002 1.988243109645e+002 1.970779088343e+002 1.988805191369e+002 1.984353185797e+002 1.986175750770e+002 1.988234592936e+002 1.987148022211e+002 1.988798841503e+002 1.987949424887e+002 1.983816999519e+002 1.982401103373e+002 1.980899138115e+002 1.979270184021e+002 1.970807239331e+002 1.973580186428e+002 1.971625502992e+002 1.971624564368e+002 1.987949356322e+002 1.973560787060e+002 1.987147860325e+002 1.986185959819e+002 1.984353050002e+002 1.989444183795e+002 1.989444719347e+002 1.985176610672e+002 1.984220621297e+002 1.989410337659e+002 1.971482177974e+002 1.989336317343e+002 1.989341347024e+002 1.969294925561e+002 1.989392441934e+002 1.967431230461e+002 1.971863594050e+002 1.975351293613e+002 1.977639992628e+002 1.968977013915e+002 1.967047180641e+002 1.975170782474e+002 1.967861572329e+002 1.967809550262e+002 1.977816191165e+002 1.967077936247e+002 1.975836579910e+002 1.976885663150e+002 1.966910252262e+002 1.972683985195e+002 1.985606489065e+002 1.986643973722e+002 1.987533543653e+002 1.988572192226e+002 1.989040448071e+002 1.985015031787e+002 1.978336556856e+002 1.980019173640e+002 1.981599513965e+002 1.983062984653e+002 1.976116202306e+002 1.967863071458e+002 1.976939136378e+002 1.976044918808e+002 1.989197615783e+002 1.989385673258e+002 1.969725692425e+002 1.974535312342e+002 1.969802556819e+002 1.973238069232e+002 1.989419958864e+002 1.967008949465e+002 1.983983042306e+002 1.982605642420e+002 1.981103243648e+002 1.979488023715e+002 1.985393777185e+002 1.985236287805e+002 1.984189186202e+002 1.986477428504e+002 1.987394050763e+002 1.974912856647e+002 1.988148378177e+002 1.973010411375e+002 1.988734807114e+002 1.971061270211e+002 1.989097043130e+002 1.988732301757e+002 1.988149928550e+002 1.987397735597e+002 1.986481804533e+002 1.971060149196e+002 1.973002501960e+002 1.979496714852e+002 1.981101483878e+002 1.982604020513e+002 1.989095846796e+002 1.969365800801e+002 1.978059381265e+002 1.989126760522e+002 1.989350087483e+002 1.989350111421e+002 1.969507235468e+002 1.968728355420e+002 1.967294009109e+002 1.976790226398e+002 1.988964207115e+002 1.988463611949e+002 1.987671118476e+002 1.986809389929e+002 1.985775936420e+002 1.970067552220e+002 1.972347885082e+002 1.974267255210e+002 1.983315484069e+002 1.980314532299e+002 1.978650247413e+002 1.981848765060e+002 1.984830512531e+002 1.989246940439e+002 1.989428293291e+002 1.989428304277e+002 1.988682615989e+002 1.987347624495e+002 1.986422240140e+002 1.973117330981e+002 1.979658329558e+002 1.981262601362e+002 1.982752739001e+002 1.975835512593e+002 1.976231223317e+002 1.985346244295e+002 1.985285360350e+002 1.977958056184e+002 1.989448342620e+002 1.989904311907e+002 1.974725767510e+002 1.978227641146e+002 1.985870407628e+002 1.986878599534e+002 1.987728383797e+002 1.988930806088e+002 1.988416769172e+002 1.974126882517e+002 1.972203642677e+002 1.970223700804e+002 1.981986477432e+002 1.983418033809e+002 1.978776034333e+002 1.980434916397e+002 1.988930768945e+002 1.988416580461e+002 1.980434869067e+002 1.981990141997e+002 1.987732434864e+002 1.983419786404e+002 1.986883519458e+002 1.985877610784e+002 1.972194606635e+002 1.984724528650e+002 1.984717980874e+002 1.967671128068e+002 1.975424007527e+002 1.967569861794e+002 1.978430473236e+002 1.976573048172e+002 1.989316201054e+002 1.989313088728e+002 1.977273032591e+002 1.977417260621e+002 1.976692398574e+002 1.985468330363e+002 1.983910842996e+002 1.984257024091e+002 1.985159929928e+002 1.982907469226e+002 1.981430496462e+002 1.979838022363e+002 1.986263760606e+002 1.971478981246e+002 1.973417052673e+002 1.988630238306e+002 1.988002929696e+002 1.987213815645e+002 1.988625254784e+002 1.971476586328e+002 1.988002959109e+002 1.973416587757e+002 1.979838040327e+002 1.981430515041e+002 1.982879369638e+002 1.987213835698e+002 1.986263770619e+002 1.977046988336e+002 1.966877201254e+002 1.989430469113e+002 1.976622629566e+002 1.984091895953e+002 1.984078303784e+002 1.971209376630e+002 1.971205779500e+002 1.988099017991e+002 1.988098198342e+002 1.989400057988e+002 1.967060824025e+002 1.969010450606e+002 1.969384870806e+002 1.967338276181e+002 1.989448682795e+002 1.990798335613e+002 1.989448898546e+002 1.990149513635e+002 1.966835069883e+002 1.989165179853e+002 1.989166043590e+002 1.986395167133e+002 1.987324838944e+002 1.973168829491e+002 1.982709014931e+002 1.979607637596e+002 1.981215176458e+002 1.988695931360e+002 1.968363891299e+002 1.968424442423e+002 1.967075191538e+002 1.977689167549e+002 1.975296591563e+002 1.967168646474e+002 1.968937910103e+002 1.970294605713e+002 1.975779775224e+002 1.968651683692e+002 1.989262962525e+002 1.989262967791e+002 1.975584087735e+002 1.977499985216e+002 1.989214682461e+002 1.974858191933e+002 1.977545620988e+002 1.977249875378e+002 1.988526000961e+002 1.969836030816e+002 1.989010173151e+002 1.979956208434e+002 1.981536814802e+002 1.983008982924e+002 1.985089350049e+002 1.972580672557e+002 1.987576090916e+002 1.974491857753e+002 1.986695016305e+002 1.985536020264e+002 1.989121765910e+002 1.967818725296e+002 1.976917541020e+002 1.976299828335e+002 1.975051458884e+002 1.966812274704e+002 1.989449236024e+002 1.991463384995e+002 1.989449249157e+002 1.992179478522e+002 1.970025799537e+002 1.969219953077e+002 1.976467957197e+002 1.975787987281e+002 1.989401882338e+002 1.974020223416e+002 1.978846660851e+002 1.968395826938e+002 1.977723533109e+002 1.967163064392e+002 1.986072389838e+002 1.987051241501e+002 1.987870388266e+002 1.973767661820e+002 1.971835986267e+002 1.987957036907e+002 1.988794296886e+002 1.987157398003e+002 1.988228715416e+002 1.986197265020e+002 1.971604561466e+002 1.973540262302e+002 1.970826638753e+002 1.979285466524e+002 1.982432748981e+002 1.980912998961e+002 1.983825694246e+002 1.988840146236e+002 1.988291056405e+002 1.970629590629e+002 1.984489827773e+002 1.979087628903e+002 1.980727809497e+002 1.982258259130e+002 1.983666490521e+002 1.984341894399e+002 1.984718008078e+002 1.983417933364e+002 1.980434851745e+002 1.981986467856e+002 1.978776000169e+002 1.988930834070e+002 1.988416593526e+002 1.987734029975e+002 1.985876199602e+002 1.986885443136e+002 1.970229523786e+002 1.972190092534e+002 1.974116640889e+002 1.975271282557e+002 1.968845846565e+002 1.989398643114e+002 1.969971673136e+002 1.984320358135e+002 1.983845302114e+002 1.982451015919e+002 1.980935972557e+002 1.979309478081e+002 1.988214198923e+002 1.988784069216e+002 1.970866888619e+002 1.987967574833e+002 1.987167839635e+002 1.986208203675e+002 1.971574783483e+002 1.973519758789e+002 1.976420089326e+002 1.989267718779e+002 1.976211142489e+002 1.989294301556e+002 1.984694586501e+002 1.984733166752e+002 1.983460071171e+002 1.982031741885e+002 1.980484388656e+002 1.978828639540e+002 1.988922669437e+002 1.988405168147e+002 1.987712194357e+002 1.986859021678e+002 1.985896698028e+002 1.972245667194e+002 1.985862837109e+002 1.980465385150e+002 1.981958100888e+002 1.983443934810e+002 1.986874885112e+002 1.987725306991e+002 1.974134409161e+002 1.988417642214e+002 1.972211451539e+002 1.988931560710e+002 1.970220496608e+002 1.967394438188e+002 1.988344340832e+002 1.970461946733e+002 1.988878902591e+002 1.980613357518e+002 1.983569570200e+002 1.982163404998e+002 1.978965788700e+002 1.971981527178e+002 1.987815004524e+002 1.973909624804e+002 1.986983762494e+002 1.985990311608e+002 1.984586535098e+002 1.968412104790e+002 1.989448969483e+002 1.990920645347e+002 1.989331914561e+002 1.989382056273e+002 1.989382032385e+002 1.976152654780e+002 1.976859930799e+002 1.968298136926e+002 1.970269718166e+002 1.989188985670e+002 1.968557875156e+002 1.989262755058e+002 1.989261717932e+002 1.969127786698e+002 1.985530155742e+002 1.986587701345e+002 1.974693970511e+002 1.987486529808e+002 1.972795319878e+002 1.983023365402e+002 1.981538803182e+002 1.979972999643e+002 1.985086587430e+002 1.989054814265e+002 1.969574929756e+002 1.988594540850e+002 1.975041610504e+002 1.977936271152e+002 1.975978170938e+002 1.966860241605e+002 1.967420721340e+002 1.989439133738e+002 1.981101414919e+002 1.989439129858e+002 1.980595460772e+002 1.978863140337e+002 1.974027833945e+002 1.978224637566e+002 1.966925984564e+002 1.989075437303e+002 1.976514188018e+002 1.975638826410e+002 1.977130695354e+002 1.975935197357e+002 1.968204537367e+002 1.966772849950e+002 1.967459896434e+002 1.974426910417e+002 1.966765520255e+002 1.967788878274e+002 1.976097178219e+002 1.967661927619e+002 1.966893822544e+002 1.976655925038e+002 1.975488363617e+002 1.977184736556e+002 1.975750066357e+002 1.989362264464e+002 1.971257860787e+002 1.969762231793e+002 1.984852089583e+002 1.985150512847e+002 1.989073937665e+002 1.988623276116e+002 1.988982487943e+002 1.988485773381e+002 1.987489395701e+002 1.986591101999e+002 1.972789279716e+002 1.985756575617e+002 1.985477482409e+002 1.978544205339e+002 1.978191218081e+002 1.980219365642e+002 1.979854817865e+002 1.981446179085e+002 1.981786309716e+002 1.983233539097e+002 1.982921311212e+002 1.974038590648e+002 1.989423168860e+002 1.989422915390e+002 1.989438024298e+002 1.989438031167e+002 1.977703934579e+002 1.989433950419e+002 1.983706870843e+002 1.982302469403e+002 1.980775496037e+002 1.979138398680e+002 1.984451741199e+002 1.984977443184e+002 1.985641421526e+002 1.986681657967e+002 1.974520806239e+002 1.987564980070e+002 1.972607621169e+002 1.988284712786e+002 1.970648953142e+002 1.988835565189e+002 1.988835436466e+002 1.988284526214e+002 1.989018584024e+002 1.987564269339e+002 1.986680808202e+0