<?xml version="1.0"?>
<VTKFile type="UnstructuredGrid" version="0.1" byte_order="LittleEndian">
  <UnstructuredGrid>
    <Piece NumberOfPoints="2604" NumberOfCells="4910">
      <Points>
        <DataArray type="Float64" NumberOfComponents="3" format="ascii">
          0.000000000000e+000 0.000000000000e+000 0.000000000000e+000
          2.000000000000e+002 0.000000000000e+000 0.000000000000e+000
          2.000000000000e+002 2.000000000000e+001 0.000000000000e+000
          0.000000000000e+000 2.000000000000e+001 0.000000000000e+000
          1.492537313427e+000 0.000000000000e+000 0.000000000000e+000
          2.985074626854e+000 0.000000000000e+000 0.000000000000e+000
          4.477611940281e+000 0.000000000000e+000 0.000000000000e+000
          5.970149253708e+000 0.000000000000e+000 0.000000000000e+000
          7.462686567135e+000 0.000000000000e+000 0.000000000000e+000
          8.955223880561e+000 0.000000000000e+000 0.000000000000e+000
          1.044776119399e+001 0.000000000000e+000 0.000000000000e+000
          1.194029850741e+001 0.000000000000e+000 0.000000000000e+000
          1.343283582084e+001 0.000000000000e+000 0.000000000000e+000
          1.492537313427e+001 0.000000000000e+000 0.000000000000e+000
          1.641791044770e+001 0.000000000000e+000 0.000000000000e+000
          1.791044776112e+001 0.000000000000e+000 0.000000000000e+000
          1.940298507455e+001 0.000000000000e+000 0.000000000000e+000
          2.089552238798e+001 0.000000000000e+000 0.000000000000e+000
          2.238805970141e+001 0.000000000000e+000 0.000000000000e+000
          2.388059701484e+001 0.000000000000e+000 0.000000000000e+000
          2.537313432826e+001 0.000000000000e+000 0.000000000000e+000
          2.686567164169e+001 0.000000000000e+000 0.000000000000e+000
          2.835820895511e+001 0.000000000000e+000 0.000000000000e+000
          2.985074626854e+001 0.000000000000e+000 0.000000000000e+000
          3.134328358196e+001 0.000000000000e+000 0.000000000000e+000
          3.283582089539e+001 0.000000000000e+000 0.000000000000e+000
          3.432835820881e+001 0.000000000000e+000 0.000000000000e+000
          3.582089552224e+001 0.000000000000e+000 0.000000000000e+000
          3.731343283566e+001 0.000000000000e+000 0.000000000000e+000
          3.880597014909e+001 0.000000000000e+000 0.000000000000e+000
          4.029850746251e+001 0.000000000000e+000 0.000000000000e+000
          4.179104477594e+001 0.000000000000e+000 0.000000000000e+000
          4.328358208936e+001 0.000000000000e+000 0.000000000000e+000
          4.477611940279e+001 0.000000000000e+000 0.000000000000e+000
          4.626865671621e+001 0.000000000000e+000 0.000000000000e+000
          4.776119402964e+001 0.000000000000e+000 0.000000000000e+000
          4.925373134306e+001 0.000000000000e+000 0.000000000000e+000
          5.074626865649e+001 0.000000000000e+000 0.000000000000e+000
          5.223880596991e+001 0.000000000000e+000 0.000000000000e+000
          5.373134328334e+001 0.000000000000e+000 0.000000000000e+000
          5.522388059676e+001 0.000000000000e+000 0.000000000000e+000
          5.671641791019e+001 0.000000000000e+000 0.000000000000e+000
          5.820895522361e+001 0.000000000000e+000 0.000000000000e+000
          5.970149253704e+001 0.000000000000e+000 0.000000000000e+000
          6.119402985046e+001 0.000000000000e+000 0.000000000000e+000
          6.268656716389e+001 0.000000000000e+000 0.000000000000e+000
          6.417910447732e+001 0.000000000000e+000 0.000000000000e+000
          6.567164179075e+001 0.000000000000e+000 0.000000000000e+000
          6.716417910418e+001 0.000000000000e+000 0.000000000000e+000
          6.865671641761e+001 0.000000000000e+000 0.000000000000e+000
          7.014925373104e+001 0.000000000000e+000 0.000000000000e+000
          7.164179104447e+001 0.000000000000e+000 0.000000000000e+000
          7.313432835790e+001 0.000000000000e+000 0.000000000000e+000
          7.462686567133e+001 0.000000000000e+000 0.000000000000e+000
          7.611940298476e+001 0.000000000000e+000 0.000000000000e+000
          7.761194029819e+001 0.000000000000e+000 0.000000000000e+000
          7.910447761162e+001 0.000000000000e+000 0.000000000000e+000
          8.059701492505e+001 0.000000000000e+000 0.000000000000e+000
          8.208955223848e+001 0.000000000000e+000 0.000000000000e+000
          8.358208955191e+001 0.000000000000e+000 0.000000000000e+000
          8.507462686534e+001 0.000000000000e+000 0.000000000000e+000
          8.656716417877e+001 0.000000000000e+000 0.000000000000e+000
          8.805970149220e+001 0.000000000000e+000 0.000000000000e+000
          8.955223880563e+001 0.000000000000e+000 0.000000000000e+000
          9.104477611907e+001 0.000000000000e+000 0.000000000000e+000
          9.253731343250e+001 0.000000000000e+000 0.000000000000e+000
          9.402985074593e+001 0.000000000000e+000 0.000000000000e+000
          9.552238805936e+001 0.000000000000e+000 0.000000000000e+000
          9.701492537279e+001 0.000000000000e+000 0.000000000000e+000
          9.850746268622e+001 0.000000000000e+000 0.000000000000e+000
          9.999999999965e+001 0.000000000000e+000 0.000000000000e+000
          1.014925373131e+002 0.000000000000e+000 0.000000000000e+000
          1.029850746265e+002 0.000000000000e+000 0.000000000000e+000
          1.044776119399e+002 0.000000000000e+000 0.000000000000e+000
          1.059701492534e+002 0.000000000000e+000 0.000000000000e+000
          1.074626865668e+002 0.000000000000e+000 0.000000000000e+000
          1.089552238802e+002 0.000000000000e+000 0.000000000000e+000
          1.104477611937e+002 0.000000000000e+000 0.000000000000e+000
          1.119402985071e+002 0.000000000000e+000 0.000000000000e+000
          1.134328358205e+002 0.000000000000e+000 0.000000000000e+000
          1.149253731340e+002 0.000000000000e+000 0.000000000000e+000
          1.164179104474e+002 0.000000000000e+000 0.000000000000e+000
          1.179104477608e+002 0.000000000000e+000 0.000000000000e+000
          1.194029850742e+002 0.000000000000e+000 0.000000000000e+000
          1.208955223877e+002 0.000000000000e+000 0.000000000000e+000
          1.223880597011e+002 0.000000000000e+000 0.000000000000e+000
          1.238805970145e+002 0.000000000000e+000 0.000000000000e+000
          1.253731343280e+002 0.000000000000e+000 0.000000000000e+000
          1.268656716414e+002 0.000000000000e+000 0.000000000000e+000
          1.283582089548e+002 0.000000000000e+000 0.000000000000e+000
          1.298507462683e+002 0.000000000000e+000 0.000000000000e+000
          1.313432835817e+002 0.000000000000e+000 0.000000000000e+000
          1.328358208952e+002 0.000000000000e+000 0.000000000000e+000
          1.343283582086e+002 0.000000000000e+000 0.000000000000e+000
          1.358208955220e+002 0.000000000000e+000 0.000000000000e+000
          1.373134328355e+002 0.000000000000e+000 0.000000000000e+000
          1.388059701489e+002 0.000000000000e+000 0.000000000000e+000
          1.402985074624e+002 0.000000000000e+000 0.000000000000e+000
          1.417910447758e+002 0.000000000000e+000 0.000000000000e+000
          1.432835820892e+002 0.000000000000e+000 0.000000000000e+000
          1.447761194027e+002 0.000000000000e+000 0.000000000000e+000
          1.462686567161e+002 0.000000000000e+000 0.000000000000e+000
          1.477611940296e+002 0.000000000000e+000 0.000000000000e+000
          1.492537313430e+002 0.000000000000e+000 0.000000000000e+000
          1.507462686564e+002 0.000000000000e+000 0.000000000000e+000
          1.522388059699e+002 0.000000000000e+000 0.000000000000e+000
          1.537313432833e+002 0.000000000000e+000 0.000000000000e+000
          1.552238805968e+002 0.000000000000e+000 0.000000000000e+000
          1.567164179102e+002 0.000000000000e+000 0.000000000000e+000
          1.582089552237e+002 0.000000000000e+000 0.000000000000e+000
          1.597014925371e+002 0.000000000000e+000 0.000000000000e+000
          1.611940298505e+002 0.000000000000e+000 0.000000000000e+000
          1.626865671640e+002 0.000000000000e+000 0.000000000000e+000
          1.641791044774e+002 0.000000000000e+000 0.000000000000e+000
          1.656716417909e+002 0.000000000000e+000 0.000000000000e+000
          1.671641791043e+002 0.000000000000e+000 0.000000000000e+000
          1.686567164177e+002 0.000000000000e+000 0.000000000000e+000
          1.701492537312e+002 0.000000000000e+000 0.000000000000e+000
          1.716417910446e+002 0.000000000000e+000 0.000000000000e+000
          1.731343283581e+002 0.000000000000e+000 0.000000000000e+000
          1.746268656715e+002 0.000000000000e+000 0.000000000000e+000
          1.761194029849e+002 0.000000000000e+000 0.000000000000e+000
          1.776119402984e+002 0.000000000000e+000 0.000000000000e+000
          1.791044776118e+002 0.000000000000e+000 0.000000000000e+000
          1.805970149253e+002 0.000000000000e+000 0.000000000000e+000
          1.820895522387e+002 0.000000000000e+000 0.000000000000e+000
          1.835820895521e+002 0.000000000000e+000 0.000000000000e+000
          1.850746268656e+002 0.000000000000e+000 0.000000000000e+000
          1.865671641790e+002 0.000000000000e+000 0.000000000000e+000
          1.880597014925e+002 0.000000000000e+000 0.000000000000e+000
          1.895522388059e+002 0.000000000000e+000 0.000000000000e+000
          1.910447761194e+002 0.000000000000e+000 0.000000000000e+000
          1.925373134328e+002 0.000000000000e+000 0.000000000000e+000
          1.940298507462e+002 0.000000000000e+000 0.000000000000e+000
          1.955223880597e+002 0.000000000000e+000 0.000000000000e+000
          1.970149253731e+002 0.000000000000e+000 0.000000000000e+000
          1.985074626866e+002 0.000000000000e+000 0.000000000000e+000
          2.000000000000e+002 1.428571428570e+000 0.000000000000e+000
          2.000000000000e+002 2.857142857140e+000 0.000000000000e+000
[...]
      <PointData Scalars="MEAN_PRESSURE">
        <DataArray type="Float64" Name="MEAN_PRESSURE" format="ascii">
          2.000000000000e+002 1.991141736055e+002 1.991141721179e+002 2.000000000000e+002 1.995008293394e+002 1.984964316382e+002 1.978171976627e+002 1.973429063083e+002 1.970292506925e+002 1.968375871475e+002 1.967272062122e+002 1.966755093861e+002 1.966610758013e+002 1.966699734351e+002 1.966919726970e+002 1.967211786101e+002 1.967536431858e+002 1.967872068812e+002 1.968207797956e+002 1.968538902469e+002 1.968864304464e+002 1.969183926263e+002 1.969499169229e+002 1.969811109023e+002 1.970120647115e+002 1.970428416514e+002 1.970734925059e+002 1.971040458687e+002 1.971345154535e+002 1.971649107977e+002 1.971952335477e+002 1.972254837007e+002 1.972556548493e+002 1.972857437032e+002 1.973157445325e+002 1.973456505704e+002 1.973754582578e+002 1.974051590097e+002 1.974347492356e+002 1.974642246312e+002 1.974935760816e+002 1.975227961939e+002 1.975518855861e+002 1.975808350956e+002 1.976096416663e+002 1.976382988122e+002 1.976668044759e+002 1.976951445748e+002 1.977233267558e+002 1.977513357063e+002 1.977791687689e+002 1.978068231597e+002 1.978342976859e+002 1.978615729454e+002 1.978886591254e+002 1.979155470992e+002 1.979422344936e+002 1.979687091571e+002 1.979949697762e+002 1.980210236242e+002 1.980468443787e+002 1.980724402395e+002 1.980978057346e+002 1.981229410309e+002 1.981478352788e+002 1.981724862954e+002 1.981968908139e+002 1.982210421383e+002 1.982449409246e+002 1.982685772991e+002 1.982919561059e+002 1.983150626945e+002 1.983379022107e+002 1.983604662327e+002 1.983827510990e+002 1.984047575249e+002 1.984264756760e+002 1.984479109483e+002 1.984690520664e+002 1.984898995924e+002 1.985104446926e+002 1.985306936623e+002 1.985506351065e+002 1.985702720988e+002 1.985895967219e+002 1.986086075531e+002 1.986273039029e+002 1.986456809959e+002 1.986637362373e+002 1.986814676458e+002 1.986988725691e+002 1.987159490670e+002 1.987326948248e+002 1.987491049510e+002 1.987651755482e+002 1.987809118557e+002 1.987963034991e+002 1.988113526376e+002 1.988260576296e+002 1.988404176010e+002 1.988544269888e+002 1.988680821314e+002 1.988813888327e+002 1.988943366730e+002 1.989069284153e+002 1.989191628983e+002 1.989310397303e+002 1.989425536168e+002 1.989537012284e+002 1.989644890005e+002 1.989749065411e+002 1.989849569217e+002 1.989946402163e+002 1.990039572516e+002 1.990129005900e+002 1.990214682227e+002 1.990296677207e+002 1.990374884915e+002 1.990449340181e+002 1.990520043408e+002 1.990587010099e+002 1.990650193885e+002 1.990709556190e+002 1.990765121076e+002 1.990816876426e+002 1.990864787249e+002 1.990908926737e+002 1.990949286905e+002 1.990985760123e+002 1.991018483789e+002 1.991047424955e+002 1.991072332200e+002 1.991093461151e+002 1.991110765342e+002 1.991124440959e+002 1.991133681399e+002 1.991139629047e+002 1.991141530223e+002 1.991141338558e+002 1.991141754805e+002 1.991141671284e+002 1.991141630352e+002 1.991141555241e+002 1.991141505952e+002 1.991141540126e+002 1.991141544069e+002 1.991141450066e+002 1.991141709845e+002 1.991141314946e+002 1.991141513801e+002 1.991139615646e+002 1.991133670755e+002 1.991124431746e+002 1.991110756253e+002 1.991093454133e+002 1.991072337373e+002 1.991047441932e+002 1.991018503172e+002 1.990985778262e+002 1.990949303777e+002 1.990908930814e+002 1.990864794353e+002 1.990816874168e+002 1.990765108787e+002 1.990709547078e+002 1.990650175632e+002 1.990586987341e+002 1.990520092184e+002 1.990449380189e+002 1.990374895069e+002 1.990296674743e+002 1.990214694197e+002 1.990128974199e+002 1.990039567182e+002 1.989946429225e+002 1.989849605715e+002 1.989749065172e+002 1.989644878670e+002 1.989536991020e+002 1.989425523681e+002 1.989310380410e+002 1.989191635471e+002 1.989069296421e+002 1.988943342187e+002 1.988813872423e+002 1.988680805681e+002 1.988544265578e+002 1.988404166312e+002 1.988260585577e+002 1.988113536711e+002 1.987963008603e+002 1.987809103480e+002 1.987651745171e+002 1.987491051116e+002 1.987326945931e+002 1.987159470556e+002 1.986988734667e+002 1.986814682783e+002 1.986637365432e+002 1.986456810033e+002 1.986273048621e+002 1.986086108706e+002 1.985895994203e+002 1.985702719213e+002 1.985506382618e+002 1.985306938438e+002 1.985104453784e+002 1.984898967594e+002 1.984690531723e+002 1.984479106768e+002 1.984264788484e+002 1.984047588035e+002 1.983827520875e+002 1.983604644311e+002 1.983379003353e+002 1.983150637638e+002 1.982919550567e+002 1.982685793706e+002 1.982449398210e+002 1.982210420478e+002 1.981968887812e+002 1.981724850873e+002 1.981478355500e+002 1.981229413864e+002 1.980978080992e+002 1.980724393197e+002 1.980468409134e+002 1.980210161189e+002 1.979949701333e+002 1.979687086575e+002 1.979422332050e+002 1.979155492297e+002 1.978886606188e+002 1.978615736717e+002 1.978342918766e+002 1.978068214272e+002 1.977791668172e+002 1.977513289679e+002 1.977233214953e+002 1.976951434615e+002 1.976667986936e+002 1.976382962862e+002 1.976096351426e+002 1.975808250390e+002 1.975518724339e+002 1.975227789934e+002 1.974935512634e+002 1.974641951884e+002 1.974347146626e+002 1.974051143463e+002 1.973754018844e+002 1.973455795033e+002 1.973156536040e+002 1.972856290442e+002 1.972555104874e+002 1.972253006460e+002 1.971950023486e+002 1.971646183430e+002 1.971341445700e+002 1.971035762718e+002 1.970729005026e+002 1.970420947080e+002 1.970111191311e+002 1.969799155057e+002 1.969484009025e+002 1.969164648396e+002 1.968839812620e+002 1.968508147531e+002 1.968169217707e+002 1.967823515394e+002 1.967475690637e+002 1.967136263069e+002 1.966826496413e+002 1.966582397510e+002 1.966472532977e+002 1.966594195441e+002 1.967093976686e+002 1.968148451319e+002 1.970086084219e+002 1.973244309681e+002 1.977968919620e+002 1.984832137170e+002 1.994838811686e+002 2.000000000000e+002 2.000000000000e+002 2.000000000000e+002 2.000000000000e+002 2.000000000000e+002 2.000000000000e+002 2.000000000000e+002 2.000000000000e+002 2.000000000000e+002 2.000000000000e+002 2.000000000000e+002 2.000000000000e+002 2.000000000000e+002 1.991055016482e+002 1.967484607673e+002 1.990793108092e+002 1.990337730667e+002 1.989690850543e+002 1.988870903364e+002 1.987876796634e+002 1.969333292283e+002 1.986726356187e+002 1.971514533312e+002 1.973623991974e+002 1.975699742898e+002 1.978728294790e+002 1.980596635881e+002 1.982330167095e+002 1.983937830693e+002 1.985406947245e+002 1.967366974122e+002 1.977233252974e+002 1.986086033966e+002 1.986077369938e+002 1.984690525822e+002 1.983150630892e+002 1.981478361055e+002 1.979687101536e+002 1.990596858527e+002 1.990053371059e+002 1.989324020297e+002 1.979687060779e+002 1.981433878954e+002 1.983169161938e+002 1.984652796330e+002 1.988420744367e+002 1.987326883556e+002 1.970411248441e+002 1.972520715041e+002 1.974675293624e+002 1.987334635061e+002 1.988405536775e+002 1.989311507352e+002 1.990039476105e+002 1.990586914754e+002 1.974639000446e+002 1.972552358301e+002 1.970422599937e+002 1.990945254759e+002 1.990942831975e+002 1.976627337006e+002 1.977865838790e+002 1.966610657987e+002 1.968222650286e+002 1.991111335027e+002 1.973363158160e+002 1.991111814340e+002 1.973368805417e+002 1.966586554033e+002 1.968489735072e+002 1.976317799039e+002 1.978107533284e+002 1.990791521350e+002 1.985406973395e+002 1.990336185329e+002 1.983937900006e+002 1.982330235311e+002 1.980596688704e+002 1.978808905717e+002 1.986724644254e+002 1.989699205458e+002 1.988890525796e+002 1.987900157221e+002 1.971491103551e+002 1.973579003902e+002 1.986728073196e+002 1.987886430042e+002 1.988879005874e+002 1.989697370492e+002 1.980596236650e+002 1.982329800090e+002 1.983937473955e+002 1.990336185925e+002 1.985410570507e+002 1.990791457960e+002 1.975663694804e+002 1.973605110038e+002 1.971494383020e+002 1.969327295004e+002 1.991044114806e+002 1.991045916316e+002 1.967053747392e+002 1.969503505597e+002 1.978941589668e+002 1.975441554247e+002 1.991125751801e+002 1.978731749801e+002 1.967401567525e+002 1.967573313244e+002 1.967344289762e+002 1.977071907815e+002 1.976480310528e+002 1.977983928248e+002 1.966563827214e+002 1.968273935524e+002 1.977239591431e+002 1.990974665166e+002 1.989414391518e+002 1.989949749820e+002 1.988530696365e+002 1.990522418353e+002 1.987474986523e+002 1.984864010803e+002 1.981683479242e+002 1.979905612009e+002 1.983356711147e+002 1.970720585580e+002 1.974376082692e+002 1.972283409717e+002 1.985914472127e+002 1.977233230257e+002 1.991131890483e+002 1.983508555229e+002 1.991131890210e+002 1.983242827110e+002 1.984973160595e+002 1.983460421855e+002 1.981812871763e+002 1.980043607950e+002 1.987098315626e+002 1.985819001246e+002 1.986339422567e+002 1.988207968303e+002 1.975040798360e+002 1.989147922032e+002 1.972964479439e+002 1.989911860499e+002 1.970839865484e+002 1.990494916216e+002 1.990492223535e+002 1.990676199128e+002 1.989908122332e+002 1.990161891583e+002 1.989136565762e+002 1.989461631273e+002 1.988194292838e+002 1.988588442260e+002 1.970886032907e+002 1.987541947904e+002 1.987097835628e+002 1.972993579149e+002 1.972157420858e+002 1.980044954574e+002 1.981822818673e+002 1.983478538429e+002 1.981148142783e+002 1.982843023189e+002 1.984963959401e+002 1.984409873909e+002 1.974326198409e+002 1.986339910821e+002 1.985855466669e+002 1.990671950927e+002 1.969999925253e+002 1.990146911020e+002 1.972189338338e+002 1.989449260952e+002 1.974284866718e+002 1.988573268473e+002 1.979283391599e+002 1.981113973564e+002 1.982812242033e+002 1.984376936765e+002 1.987525131780e+002 1.967218471386e+002 1.990890837693e+002 1.990888874318e+002 1.978160069949e+002 1.976256706659e+002 1.968662802986e+002 1.986323519179e+002 1.982849877998e+002 1.984419765108e+002 1.981159770282e+002 1.979288819969e+002 1.970023916310e+002 1.972939233971e+002 1.990668207554e+002 1.975023093518e+002 1.990152749068e+002 1.989158404889e+002 1.987113022992e+002 1.988220581058e+002 1.970113064637e+002 1.990987094024e+002 1.990987087061e+002 1.977672624157e+002 1.966473735492e+002 1.990894999402e+002 1.986473248324e+002 1.986975784582e+002 1.988102139129e+002 1.975233100037e+002 1.989059782436e+002 1.973179739653e+002 1.980959217258e+002 1.982668210221e+002 1.984248660894e+002 1.990710648292e+002 1.969797248879e+002 1.990221087584e+002 1.968047861674e+002 1.979178189334e+002 1.991092572614e+002 1.991090209145e+002 1.990859130551e+002 1.979456266784e+002 1.974899347752e+002 1.978375143492e+002 1.976053785833e+002 1.970002811294e+002 1.968897907988e+002 1.966569213095e+002 1.966779087575e+002 1.968904855404e+002 1.985094787608e+002 1.983597564155e+002 1.981961198999e+002 1.980201953413e+002 1.989854706725e+002 1.971021493508e+002 1.990453268233e+002 1.985694703333e+002 1.987647443691e+002 1.989845632535e+002 1.988686597893e+002 1.990446510523e+002 1.989541687517e+002 1.985119109002e+002 1.983596940015e+002 1.981979012252e+002 1.980220978535e+002 1.971051884362e+002 1.974059892692e+002 1.971938987540e+002 1.971938013365e+002 1.989541613974e+002 1.974038854388e+002 1.988686423432e+002 1.987658361740e+002 1.985694555011e+002 1.991132870884e+002 1.991133440078e+002 1.984391644501e+002 1.983389988870e+002 1.991096897159e+002 1.970566844033e+002 1.991018214754e+002 1.991023561576e+002 1.968504509553e+002 1.991077875452e+002 1.966918719339e+002 1.970950791821e+002 1.975980288783e+002 1.978458634902e+002 1.969084345270e+002 1.966672253636e+002 1.975784649772e+002 1.967894509900e+002 1.967837470087e+002 1.978649244391e+002 1.967001711739e+002 1.976506131447e+002 1.977642276258e+002 1.966796804363e+002 1.973087542472e+002 1.987038172283e+002 1.988148107842e+002 1.989098112421e+002 1.990205231956e+002 1.990703584585e+002 1.986404511446e+002 1.979211999165e+002 1.981029718676e+002 1.982733851783e+002 1.984308887766e+002 1.976809042581e+002 1.967895716088e+002 1.977700164083e+002 1.976731831618e+002 1.990870743084e+002 1.991070680680e+002 1.969884747249e+002 1.975095754967e+002 1.968992409009e+002 1.972257826157e+002 1.991107123438e+002 1.966918676486e+002 1.985297404555e+002 1.983817018829e+002 1.982199056358e+002 1.980456262293e+002 1.986810352806e+002 1.986641626695e+002 1.985518698140e+002 1.987970069859e+002 1.988949248273e+002 1.975505074553e+002 1.989753758057e+002 1.973441759437e+002 1.990378353756e+002 1.971327231993e+002 1.990763783534e+002 1.990375687169e+002 1.989755410532e+002 1.988953180983e+002 1.987974748035e+002 1.971325866037e+002 1.973433148601e+002 1.980465648974e+002 1.982197159694e+002 1.983815274240e+002 1.990762511054e+002 1.969499393261e+002 1.978912277224e+002 1.990795390567e+002 1.991032853073e+002 1.991032878536e+002 1.969650342568e+002 1.968819923280e+002 1.966784938118e+002 1.977538955724e+002 1.990622476586e+002 1.990089602490e+002 1.989244887990e+002 1.988324881650e+002 1.987219590654e+002 1.970252647164e+002 1.972722844997e+002 1.974805092536e+002 1.984580309905e+002 1.981348455676e+002 1.979551111113e+002 1.983002324411e+002 1.986206695434e+002 1.990923191572e+002 1.991115981833e+002 1.991115993505e+002 1.990322796971e+002 1.988899695091e+002 1.987911062793e+002 1.973557747508e+002 1.980640169960e+002 1.982370822256e+002 1.983975256005e+002 1.974834375544e+002 1.976933627306e+002 1.986759434438e+002 1.986694206206e+002 1.978802692479e+002 1.991137290946e+002 1.989329871071e+002 1.975302248008e+002 1.979094234167e+002 1.987320713298e+002 1.988398827373e+002 1.989305971639e+002 1.990586939230e+002 1.990039710686e+002 1.974652868253e+002 1.972566344578e+002 1.970421156911e+002 1.983150617624e+002 1.984690516553e+002 1.979687062754e+002 1.981478337652e+002 1.990586899626e+002 1.990039509775e+002 1.981478285083e+002 1.983154561564e+002 1.989310292401e+002 1.984692397739e+002 1.988404083442e+002 1.987328422639e+002 1.972556481012e+002 1.986093047595e+002 1.986086025464e+002 1.967687019100e+002 1.976059089261e+002 1.967572378166e+002 1.979313534285e+002 1.977303810229e+002 1.990996829162e+002 1.990993520374e+002 1.978061560760e+002 1.978217637484e+002 1.977433040938e+002 1.986890210499e+002 1.985219883897e+002 1.985591507607e+002 1.986559805530e+002 1.984141668022e+002 1.982551751618e+002 1.980834176251e+002 1.987741581679e+002 1.971780015092e+002 1.973882914867e+002 1.990267034818e+002 1.989598727922e+002 1.988756847673e+002 1.990261729317e+002 1.971777525403e+002 1.989598759437e+002 1.973882430997e+002 1.980834196318e+002 1.982551772221e+002 1.984111448861e+002 1.988756869254e+002 1.987741592540e+002 1.976067320607e+002 1.966512762492e+002 1.991118294397e+002 1.975633676946e+002 1.985414267483e+002 1.985399676213e+002 1.971487672236e+002 1.971483826888e+002 1.989701151305e+002 1.989700277821e+002 1.991085970793e+002 1.966987503668e+002 1.968284929207e+002 1.969519513222e+002 1.967316154584e+002 1.991137652486e+002 1.990258476575e+002 1.991137881793e+002 1.989570049405e+002 1.966647295191e+002 1.990836249755e+002 1.990837168291e+002 1.987882113537e+002 1.988875373019e+002 1.973613631236e+002 1.983928224592e+002 1.980585433369e+002 1.982319708304e+002 1.990336971423e+002 1.968432364307e+002 1.968496528116e+002 1.966657166545e+002 1.978511832959e+002 1.975921006827e+002 1.966742133567e+002 1.969043047398e+002 1.970497415951e+002 1.976444588102e+002 1.968738625678e+002 1.990940227225e+002 1.990940232840e+002 1.976232560436e+002 1.978307150459e+002 1.990888891194e+002 1.975445812420e+002 1.978356526966e+002 1.978036499760e+002 1.990156044411e+002 1.970003521458e+002 1.990671378317e+002 1.980961755242e+002 1.982666303776e+002 1.984250825624e+002 1.986484165277e+002 1.972975460807e+002 1.989143508408e+002 1.975048642704e+002 1.988202659291e+002 1.986962706564e+002 1.990790078368e+002 1.967847121860e+002 1.977676785333e+002 1.977007931908e+002 1.975655315710e+002 1.966636322277e+002 1.991138240469e+002 1.990960610790e+002 1.991138254421e+002 1.991722907432e+002 1.969180790786e+002 1.969343470841e+002 1.977190010421e+002 1.976453485432e+002 1.991087909923e+002 1.974537182968e+002 1.979763388630e+002 1.968466275798e+002 1.978549008423e+002 1.967101698615e+002 1.987536859819e+002 1.988583241393e+002 1.989457414641e+002 1.974263259110e+002 1.972167402091e+002 1.989549801857e+002 1.990441673102e+002 1.988696607604e+002 1.989839368827e+002 1.987670455518e+002 1.971916259880e+002 1.974016578511e+002 1.971072888609e+002 1.980237487653e+002 1.983630992309e+002 1.981993958372e+002 1.985128446695e+002 1.990490468053e+002 1.989905791437e+002 1.970859735648e+002 1.985841305125e+002 1.980023761505e+002 1.981794259656e+002 1.983443200262e+002 1.984957450682e+002 1.985682584152e+002 1.986086055160e+002 1.984690406338e+002 1.981478265909e+002 1.983150607009e+002 1.979687024587e+002 1.990586969094e+002 1.990039523766e+002 1.989311993728e+002 1.987326912964e+002 1.988406138549e+002 1.970427242638e+002 1.972551603813e+002 1.974641755371e+002 1.975893571985e+002 1.968944720186e+002 1.991084466873e+002 1.969133880303e+002 1.985659473543e+002 1.985149503494e+002 1.983650648757e+002 1.982018727266e+002 1.980263423552e+002 1.989823900193e+002 1.990430787480e+002 1.971116566955e+002 1.989561035900e+002 1.988707756629e+002 1.987682155334e+002 1.971883989399e+002 1.973994341806e+002 1.977138173449e+002 1.990945284145e+002 1.976911875831e+002 1.990973546855e+002 1.986060936287e+002 1.986102311569e+002 1.984735685827e+002 1.983199352523e+002 1.981531706096e+002 1.979743912859e+002 1.990578281814e+002 1.990027353912e+002 1.989288703424e+002 1.988377910807e+002 1.987348851603e+002 1.972611895169e+002 1.987312610795e+002 1.981511206935e+002 1.983120062407e+002 1.984718348137e+002 1.988394858659e+002 1.989302689595e+002 1.974661029446e+002 1.990040640366e+002 1.972574813024e+002 1.990587742029e+002 1.970417684977e+002 1.967376682317e+002 1.989962558588e+002 1.970678392104e+002 1.990531711019e+002 1.981670821774e+002 1.984853334442e+002 1.983341100296e+002 1.979892117516e+002 1.972325305410e+002 1.989398354239e+002 1.974417235616e+002 1.988511167598e+002 1.987449034850e+002 1.985945045524e+002 1.967734221414e+002 1.991137957184e+002 1.990394427647e+002 1.991013534204e+002 1.991066835964e+002 1.991066810560e+002 1.976848527126e+002 1.977614418454e+002 1.968362599729e+002 1.970470570468e+002 1.990861565661e+002 1.967843758324e+002 1.990940006543e+002 1.990938903836e+002 1.969244878273e+002 1.986956426073e+002 1.988087958525e+002 1.975267778848e+002 1.989047944871e+002 1.973208364503e+002 1.984266288286e+002 1.982668444296e+002 1.980979878128e+002 1.986481203698e+002 1.990718866158e+002 1.969723038414e+002 1.990229027809e+002 1.975644639982e+002 1.978779131608e+002 1.976659523515e+002 1.966643340481e+002 1.966930897735e+002 1.991127503542e+002 1.980181614762e+002 1.991127499415e+002 1.979652557132e+002 1.979781199031e+002 1.974545438012e+002 1.979090987030e+002 1.966790014929e+002 1.990740802644e+002 1.975528472270e+002 1.976291869750e+002 1.977907512890e+002 1.976612970782e+002 1.968262621671e+002 1.966577818357e+002 1.967451489421e+002 1.974978214689e+002 1.966568693202e+002 1.967814335388e+002 1.976788435283e+002 1.967078294114e+002 1.966573057506e+002 1.977393547830e+002 1.976128829961e+002 1.977966004161e+002 1.976412402650e+002 1.991045797550e+002 1.970362420762e+002 1.969923873248e+002 1.986229831472e+002 1.986549714339e+002 1.990739207635e+002 1.990259622750e+002 1.990641925865e+002 1.990113205198e+002 1.989051004332e+002 1.988091595298e+002 1.973201794709e+002 1.987198865775e+002 1.986900013336e+002 1.979436485655e+002 1.979054847527e+002 1.981245766316e+002 1.980852308133e+002 1.982568650201e+002 1.982935058483e+002 1.984492233205e+002 1.984156553758e+002 1.973042979141e+002 1.991110535273e+002 1.991110265844e+002 1.991126324400e+002 1.991126331695e+002 1.976711499975e+002 1.991121994516e+002 1.985000828200e+002 1.983490787764e+002 1.981845688941e+002 1.980078615102e+002 1.985800446402e+002 1.986364218025e+002 1.987075575955e+002 1.988188383779e+002 1.975080033381e+002 1.989131654497e+002 1.973004710902e+002 1.989899033363e+002 1.970880709100e+002 1.990485593187e+002 1.990485456286e+002 1.989898834763e+002 1.990680326035e+002 1.989130896115e+002 1.988187475455e+0