<?xml version="1.0"?>
<VTKFile type="UnstructuredGrid" version="0.1" byte_order="LittleEndian">
  <UnstructuredGrid>
    <Piece NumberOfPoints="2604" NumberOfCells="4910">
      <Points>
        <DataArray type="Float64" NumberOfComponents="3" format="ascii">
          0.000000000000e+000 0.000000000000e+000 0.000000000000e+000
          2.000000000000e+002 0.000000000000e+000 0.000000000000e+000
          2.000000000000e+002 2.000000000000e+001 0.000000000000e+000
          0.000000000000e+000 2.000000000000e+001 0.000000000000e+000
          1.492537313427e+000 0.000000000000e+000 0.000000000000e+000
          2.985074626854e+000 0.000000000000e+000 0.000000000000e+000
          4.477611940281e+000 0.000000000000e+000 0.000000000000e+000
          5.970149253708e+000 0.000000000000e+000 0.000000000000e+000
          7.462686567135e+000 0.000000000000e+000 0.000000000000e+000
          8.955223880561e+000 0.000000000000e+000 0.000000000000e+000
          1.044776119399e+001 0.000000000000e+000 0.000000000000e+000
          1.194029850741e+001 0.000000000000e+000 0.000000000000e+000
          1.343283582084e+001 0.000000000000e+000 0.000000000000e+000
          1.492537313427e+001 0.000000000000e+000 0.000000000000e+000
          1.641791044770e+001 0.000000000000e+000 0.000000000000e+000
          1.791044776112e+001 0.000000000000e+000 0.000000000000e+000
          1.940298507455e+001 0.000000000000e+000 0.000000000000e+000
          2.089552238798e+001 0.000000000000e+000 0.000000000000e+000
          2.238805970141e+001 0.000000000000e+000 0.000000000000e+000
          2.388059701484e+001 0.000000000000e+000 0.000000000000e+000
          2.537313432826e+001 0.000000000000e+000 0.000000000000e+000
          2.686567164169e+001 0.000000000000e+000 0.000000000000e+000
          2.835820895511e+001 0.000000000000e+000 0.000000000000e+000
          2.985074626854e+001 0.000000000000e+000 0.000000000000e+000
          3.134328358196e+001 0.000000000000e+000 0.000000000000e+000
          3.283582089539e+001 0.000000000000e+000 0.000000000000e+000
          3.432835820881e+001 0.000000000000e+000 0.000000000000e+000
          3.582089552224e+001 0.000000000000e+000 0.000000000000e+000
          3.731343283566e+001 0.000000000000e+000 0.000000000000e+000
          3.880597014909e+001 0.000000000000e+000 0.000000000000e+000
          4.029850746251e+001 0.000000000000e+000 0.000000000000e+000
          4.179104477594e+001 0.000000000000e+000 0.000000000000e+000
          4.328358208936e+001 0.000000000000e+000 0.000000000000e+000
          4.477611940279e+001 0.000000000000e+000 0.000000000000e+000
          4.626865671621e+001 0.000000000000e+000 0.000000000000e+000
          4.776119402964e+001 0.000000000000e+000 0.000000000000e+000
          4.925373134306e+001 0.000000000000e+000 0.000000000000e+000
          5.074626865649e+001 0.000000000000e+000 0.000000000000e+000
          5.223880596991e+001 0.000000000000e+000 0.000000000000e+000
          5.373134328334e+001 0.000000000000e+000 0.000000000000e+000
          5.522388059676e+001 0.000000000000e+000 0.000000000000e+000
          5.671641791019e+001 0.000000000000e+000 0.000000000000e+000
          5.820895522361e+001 0.000000000000e+000 0.000000000000e+000
          5.970149253704e+001 0.000000000000e+000 0.000000000000e+000
          6.119402985046e+001 0.000000000000e+000 0.000000000000e+000
          6.268656716389e+001 0.000000000000e+000 0.000000000000e+000
          6.417910447732e+001 0.000000000000e+000 0.000000000000e+000
          6.567164179075e+001 0.000000000000e+000 0.000000000000e+000
          6.716417910418e+001 0.000000000000e+000 0.000000000000e+000
          6.865671641761e+001 0.000000000000e+000 0.000000000000e+000
          7.014925373104e+001 0.000000000000e+000 0.000000000000e+000
          7.164179104447e+001 0.000000000000e+000 0.000000000000e+000
          7.313432835790e+001 0.000000000000e+000 0.000000000000e+000
          7.462686567133e+001 0.000000000000e+000 0.000000000000e+000
          7.611940298476e+001 0.000000000000e+000 0.000000000000e+000
          7.761194029819e+001 0.000000000000e+000 0.000000000000e+000
          7.910447761162e+001 0.000000000000e+000 0.000000000000e+000
          8.059701492505e+001 0.000000000000e+000 0.000000000000e+000
          8.208955223848e+001 0.000000000000e+000 0.000000000000e+000
          8.358208955191e+001 0.000000000000e+000 0.000000000000e+000
          8.507462686534e+001 0.000000000000e+000 0.000000000000e+000
          8.656716417877e+001 0.000000000000e+000 0.000000000000e+000
          8.805970149220e+001 0.000000000000e+000 0.000000000000e+000
          8.955223880563e+001 0.000000000000e+000 0.000000000000e+000
          9.104477611907e+001 0.000000000000e+000 0.000000000000e+000
          9.253731343250e+001 0.000000000000e+000 0.000000000000e+000
          9.402985074593e+001 0.000000000000e+000 0.000000000000e+000
          9.552238805936e+001 0.000000000000e+000 0.000000000000e+000
          9.701492537279e+001 0.000000000000e+000 0.000000000000e+000
          9.850746268622e+001 0.000000000000e+000 0.000000000000e+000
          9.999999999965e+001 0.000000000000e+000 0.000000000000e+000
          1.014925373131e+002 0.000000000000e+000 0.000000000000e+000
          1.029850746265e+002 0.000000000000e+000 0.000000000000e+000
          1.044776119399e+002 0.000000000000e+000 0.000000000000e+000
          1.059701492534e+002 0.000000000000e+000 0.000000000000e+000
          1.074626865668e+002 0.000000000000e+000 0.000000000000e+000
          1.089552238802e+002 0.000000000000e+000 0.000000000000e+000
          1.104477611937e+002 0.000000000000e+000 0.000000000000e+000
          1.119402985071e+002 0.000000000000e+000 0.000000000000e+000
          1.134328358205e+002 0.000000000000e+000 0.000000000000e+000
          1.149253731340e+002 0.000000000000e+000 0.000000000000e+000
          1.164179104474e+002 0.000000000000e+000 0.000000000000e+000
          1.179104477608e+002 0.000000000000e+000 0.000000000000e+000
          1.194029850742e+002 0.000000000000e+000 0.000000000000e+000
          1.208955223877e+002 0.000000000000e+000 0.000000000000e+000
          1.223880597011e+002 0.000000000000e+000 0.000000000000e+000
          1.238805970145e+002 0.000000000000e+000 0.000000000000e+000
          1.253731343280e+002 0.000000000000e+000 0.000000000000e+000
          1.268656716414e+002 0.000000000000e+000 0.000000000000e+000
          1.283582089548e+002 0.000000000000e+000 0.000000000000e+000
          1.298507462683e+002 0.000000000000e+000 0.000000000000e+000
          1.313432835817e+002 0.000000000000e+000 0.000000000000e+000
          1.328358208952e+002 0.000000000000e+000 0.000000000000e+000
          1.343283582086e+002 0.000000000000e+000 0.000000000000e+000
          1.358208955220e+002 0.000000000000e+000 0.000000000000e+000
          1.373134328355e+002 0.000000000000e+000 0.000000000000e+000
          1.388059701489e+002 0.000000000000e+000 0.000000000000e+000
          1.402985074624e+002 0.000000000000e+000 0.000000000000e+000
          1.417910447758e+002 0.000000000000e+000 0.000000000000e+000
          1.432835820892e+002 0.000000000000e+000 0.000000000000e+000
          1.447761194027e+002 0.000000000000e+000 0.000000000000e+000
          1.462686567161e+002 0.000000000000e+000 0.000000000000e+000
          1.477611940296e+002 0.000000000000e+000 0.000000000000e+000
          1.492537313430e+002 0.000000000000e+000 0.000000000000e+000
          1.507462686564e+002 0.000000000000e+000 0.000000000000e+000
          1.522388059699e+002 0.000000000000e+000 0.000000000000e+000
          1.537313432833e+002 0.000000000000e+000 0.000000000000e+000
          1.552238805968e+002 0.000000000000e+000 0.000000000000e+000
          1.567164179102e+002 0.000000000000e+000 0.000000000000e+000
          1.582089552237e+002 0.000000000000e+000 0.000000000000e+000
          1.597014925371e+002 0.000000000000e+000 0.000000000000e+000
          1.611940298505e+002 0.000000000000e+000 0.000000000000e+000
          1.626865671640e+002 0.000000000000e+000 0.000000000000e+000
          1.641791044774e+002 0.000000000000e+000 0.000000000000e+000
          1.656716417909e+002 0.000000000000e+000 0.000000000000e+000
          1.671641791043e+002 0.000000000000e+000 0.000000000000e+000
          1.686567164177e+002 0.000000000000e+000 0.000000000000e+000
          1.701492537312e+002 0.000000000000e+000 0.000000000000e+000
          1.716417910446e+002 0.000000000000e+000 0.000000000000e+000
          1.731343283581e+002 0.000000000000e+000 0.000000000000e+000
          1.746268656715e+002 0.000000000000e+000 0.000000000000e+000
          1.761194029849e+002 0.000000000000e+000 0.000000000000e+000
          1.776119402984e+002 0.000000000000e+000 0.000000000000e+000
          1.791044776118e+002 0.000000000000e+000 0.000000000000e+000
          1.805970149253e+002 0.000000000000e+000 0.000000000000e+000
          1.820895522387e+002 0.000000000000e+000 0.000000000000e+000
          1.835820895521e+002 0.000000000000e+000 0.000000000000e+000
          1.850746268656e+002 0.000000000000e+000 0.000000000000e+000
          1.865671641790e+002 0.000000000000e+000 0.000000000000e+000
          1.880597014925e+002 0.000000000000e+000 0.000000000000e+000
          1.895522388059e+002 0.000000000000e+000 0.000000000000e+000
          1.910447761194e+002 0.000000000000e+000 0.000000000000e+000
          1.925373134328e+002 0.000000000000e+000 0.000000000000e+000
          1.940298507462e+002 0.000000000000e+000 0.000000000000e+000
          1.955223880597e+002 0.000000000000e+000 0.000000000000e+000
          1.970149253731e+002 0.000000000000e+000 0.000000000000e+000
          1.985074626866e+002 0.000000000000e+000 0.000000000000e+000
          2.000000000000e+002 1.428571428570e+000 0.000000000000e+000
          2.000000000000e+002 2.857142857140e+000 0.000000000000e+000
[...]
      <PointData Scalars="MEAN_PRESSURE">
        <DataArray type="Float64" Name="MEAN_PRESSURE" format="ascii">
          2.000000000000e+002 1.977829740258e+002 1.977829733690e+002 2.000000000000e+002 1.996861289677e+002 1.989759566913e+002 1.984446575987e+002 1.980190675983e+002 1.976831548186e+002 1.974243924342e+002 1.972251415688e+002 1.970771306323e+002 1.969693771017e+002 1.968941192663e+002 1.968433870696e+002 1.968122494573e+002 1.967955674327e+002 1.967896351368e+002 1.967913825375e+002 1.967985509116e+002 1.968093070189e+002 1.968224655578e+002 1.968369412512e+002 1.968520858482e+002 1.968674683999e+002 1.968828126080e+002 1.968979613970e+002 1.969128287806e+002 1.969273759820e+002 1.969416089257e+002 1.969555481286e+002 1.969692310293e+002 1.969826838213e+002 1.969959426801e+002 1.970090361875e+002 1.970219888252e+002 1.970348240855e+002 1.970475555290e+002 1.970601979545e+002 1.970727615470e+002 1.970852509345e+002 1.970976701105e+002 1.971100252419e+002 1.971223160430e+002 1.971345440823e+002 1.971467086480e+002 1.971588103138e+002 1.971708443246e+002 1.971828144455e+002 1.971947149245e+002 1.972065449647e+002 1.972183036018e+002 1.972299904257e+002 1.972415977021e+002 1.972531294727e+002 1.972645820419e+002 1.972759543929e+002 1.972872415766e+002 1.972984429693e+002 1.973095613920e+002 1.973205861625e+002 1.973315204531e+002 1.973423619397e+002 1.973531105655e+002 1.973637618176e+002 1.973743146750e+002 1.973847676735e+002 1.973951179471e+002 1.974053656106e+002 1.974155064915e+002 1.974255424024e+002 1.974354671997e+002 1.974452828154e+002 1.974549856306e+002 1.974645739607e+002 1.974740479179e+002 1.974834032721e+002 1.974926420575e+002 1.975017594286e+002 1.975107554196e+002 1.975196261732e+002 1.975283740928e+002 1.975369942443e+002 1.975454876958e+002 1.975538509392e+002 1.975620831612e+002 1.975701838603e+002 1.975781508195e+002 1.975859827316e+002 1.975936785419e+002 1.976012369149e+002 1.976086568098e+002 1.976159370281e+002 1.976230752765e+002 1.976300696789e+002 1.976369222301e+002 1.976436283039e+002 1.976501885934e+002 1.976566021771e+002 1.976628684629e+002 1.976689848537e+002 1.976749495630e+002 1.976807648591e+002 1.976864260601e+002 1.976919341395e+002 1.976972883887e+002 1.977024884345e+002 1.977075317892e+002 1.977124168135e+002 1.977171460933e+002 1.977217149390e+002 1.977261244932e+002 1.977303746053e+002 1.977344654580e+002 1.977383936420e+002 1.977421581124e+002 1.977457620052e+002 1.977492005431e+002 1.977524750945e+002 1.977555855317e+002 1.977585323952e+002 1.977613135229e+002 1.977639270973e+002 1.977663740512e+002 1.977686537401e+002 1.977707645210e+002 1.977727095118e+002 1.977744882735e+002 1.977760959869e+002 1.977775386253e+002 1.977788146721e+002 1.977799129883e+002 1.977808447818e+002 1.977816079627e+002 1.977822111469e+002 1.977826187328e+002 1.977828810837e+002 1.977829649463e+002 1.977829564919e+002 1.977829748528e+002 1.977829711686e+002 1.977829693629e+002 1.977829660498e+002 1.977829638756e+002 1.977829653830e+002 1.977829655569e+002 1.977829614103e+002 1.977829728692e+002 1.977829554498e+002 1.977829642214e+002 1.977828804921e+002 1.977826182628e+002 1.977822107401e+002 1.977816075614e+002 1.977808444718e+002 1.977799132157e+002 1.977788154196e+002 1.977775394784e+002 1.977760967849e+002 1.977744890151e+002 1.977727096902e+002 1.977707648322e+002 1.977686536398e+002 1.977663735102e+002 1.977639266962e+002 1.977613127212e+002 1.977585313967e+002 1.977555876661e+002 1.977524768439e+002 1.977492009866e+002 1.977457618964e+002 1.977421586320e+002 1.977383922577e+002 1.977344652218e+002 1.977303757792e+002 1.977261260765e+002 1.977217149277e+002 1.977171456005e+002 1.977124158901e+002 1.977075312456e+002 1.977024877017e+002 1.976972886660e+002 1.976919346649e+002 1.976864250023e+002 1.976807641737e+002 1.976749488899e+002 1.976689846671e+002 1.976628680477e+002 1.976566025748e+002 1.976501890353e+002 1.976436271824e+002 1.976369215907e+002 1.976300692426e+002 1.976230753466e+002 1.976159369329e+002 1.976086559629e+002 1.976012372961e+002 1.975936788110e+002 1.975859828625e+002 1.975781508241e+002 1.975701842624e+002 1.975620845485e+002 1.975538520660e+002 1.975454876221e+002 1.975369955586e+002 1.975283741696e+002 1.975196264571e+002 1.975107542444e+002 1.975017598823e+002 1.974926419409e+002 1.974834045749e+002 1.974740484390e+002 1.974645743611e+002 1.974549848846e+002 1.974452820395e+002 1.974354676280e+002 1.974255419631e+002 1.974155073235e+002 1.974053651471e+002 1.973951178935e+002 1.973847668282e+002 1.973743141611e+002 1.973637618975e+002 1.973531106723e+002 1.973423628490e+002 1.973315200271e+002 1.973205846989e+002 1.973095582887e+002 1.972984430020e+002 1.972872412362e+002 1.972759536990e+002 1.972645826684e+002 1.972531297838e+002 1.972415976303e+002 1.972299876477e+002 1.972183023291e+002 1.972065434483e+002 1.971947112928e+002 1.971828111540e+002 1.971708423854e+002 1.971588060891e+002 1.971467052807e+002 1.971345384739e+002 1.971223082029e+002 1.971100151593e+002 1.970976571054e+002 1.970852328850e+002 1.970727397695e+002 1.970601720623e+002 1.970475222081e+002 1.970347819883e+002 1.970219358213e+002 1.970089678307e+002 1.969958565384e+002 1.969825764033e+002 1.969690946080e+002 1.969553760800e+002 1.969413901959e+002 1.969270972551e+002 1.969124767395e+002 1.968975231038e+002 1.968822638349e+002 1.968667729582e+002 1.968512079212e+002 1.968358463522e+002 1.968211273849e+002 1.968076918588e+002 1.967965098236e+002 1.967887711824e+002 1.967864023850e+002 1.967914654400e+002 1.968072406351e+002 1.968374305751e+002 1.968863845667e+002 1.969608638728e+002 1.970675054041e+002 1.972148086297e+002 1.974107689207e+002 1.976710486067e+002 1.980081789316e+002 1.984328973211e+002 1.989686487419e+002 1.996747884408e+002 2.000000000000e+002 2.000000000000e+002 2.000000000000e+002 2.000000000000e+002 2.000000000000e+002 2.000000000000e+002 2.000000000000e+002 2.000000000000e+002 2.000000000000e+002 2.000000000000e+002 2.000000000000e+002 2.000000000000e+002 2.000000000000e+002 1.977791494212e+002 1.972914491531e+002 1.977676067666e+002 1.977475668960e+002 1.977191615985e+002 1.976832574464e+002 1.976398705684e+002 1.968289602285e+002 1.975898448036e+002 1.969352881634e+002 1.970291977852e+002 1.971177033194e+002 1.972463892915e+002 1.973260618451e+002 1.974002520093e+002 1.974693227590e+002 1.975326967842e+002 1.967989202544e+002 1.971828134194e+002 1.975620814207e+002 1.975617060230e+002 1.975017596388e+002 1.974354673564e+002 1.973637621313e+002 1.972872418696e+002 1.977589658237e+002 1.977350714103e+002 1.977030851057e+002 1.972872403109e+002 1.973618586755e+002 1.974362635450e+002 1.975001322526e+002 1.976635917489e+002 1.976159342965e+002 1.968819166783e+002 1.969810795726e+002 1.970741658890e+002 1.976162713064e+002 1.976629279283e+002 1.977025370929e+002 1.977344612602e+002 1.977585282164e+002 1.970726156570e+002 1.969824611781e+002 1.968823844150e+002 1.977743105574e+002 1.977742037740e+002 1.971570806492e+002 1.972096969205e+002 1.968865511540e+002 1.967901016884e+002 1.977816330881e+002 1.980186447796e+002 1.977816542297e+002 1.980261058717e+002 1.969418566549e+002 1.967969991465e+002 1.971439409003e+002 1.972199749062e+002 1.977675368474e+002 1.975326978699e+002 1.977474989313e+002 1.974693256063e+002 1.974002547786e+002 1.973260639489e+002 1.972498212600e+002 1.975897704918e+002 1.977195280603e+002 1.976841154180e+002 1.976408883687e+002 1.969342175161e+002 1.970272683496e+002 1.975899193297e+002 1.976402902971e+002 1.976836117194e+002 1.977194475491e+002 1.973260449119e+002 1.974002363482e+002 1.974693074962e+002 1.977474989607e+002 1.975328534501e+002 1.977675340633e+002 1.971161715310e+002 1.970283778676e+002 1.969343134551e+002 1.968285354095e+002 1.977786687188e+002 1.977787481528e+002 1.972099633404e+002 1.968370743625e+002 1.972554716287e+002 1.971067421205e+002 1.977822689671e+002 1.984952098771e+002 1.967994053507e+002 1.972925152863e+002 1.967965461339e+002 1.971759603270e+002 1.971508391131e+002 1.972147183508e+002 1.969237504703e+002 1.967916271041e+002 1.971830821303e+002 1.977756069004e+002 1.977070435677e+002 1.977305216372e+002 1.976683921531e+002 1.977556900644e+002 1.976223766054e+002 1.975092455978e+002 1.973725428527e+002 1.972965621981e+002 1.974443240036e+002 1.968971746489e+002 1.970614108048e+002 1.969704826361e+002 1.975546523333e+002 1.971828121710e+002 1.977825397364e+002 1.988679815258e+002 1.977825397238e+002 1.988505722847e+002 1.975139572015e+002 1.974487826661e+002 1.973780838049e+002 1.973024500448e+002 1.976059983631e+002 1.975505194659e+002 1.975730613904e+002 1.976543073922e+002 1.970897098255e+002 1.976953754034e+002 1.970005931173e+002 1.977288584013e+002 1.969029602494e+002 1.977544800415e+002 1.977543615458e+002 1.977624584110e+002 1.977286942547e+002 1.977398384833e+002 1.976948783261e+002 1.977091133894e+002 1.976537108199e+002 1.976709141506e+002 1.969053314748e+002 1.976252902281e+002 1.976059775216e+002 1.970018958056e+002 1.969648341617e+002 1.973025071939e+002 1.973785096503e+002 1.974495615867e+002 1.973496348790e+002 1.974222563609e+002 1.975135599373e+002 1.974896575288e+002 1.970592883487e+002 1.975730825829e+002 1.975520978244e+002 1.977622713642e+002 1.968612239324e+002 1.977391802864e+002 1.969662292880e+002 1.977085713072e+002 1.970575135652e+002 1.976702513570e+002 1.972700322896e+002 1.973481733345e+002 1.974209347218e+002 1.974882375906e+002 1.976245583955e+002 1.968046975771e+002 1.977719123891e+002 1.977718258745e+002 1.972222091867e+002 1.971413457385e+002 1.968014423873e+002 1.975723719944e+002 1.974225507158e+002 1.974900839761e+002 1.973501322159e+002 1.972702637930e+002 1.968625347620e+002 1.969995077045e+002 1.977621065719e+002 1.970889607720e+002 1.977394367808e+002 1.976958341885e+002 1.976066374548e+002 1.976548575122e+002 1.968670756800e+002 1.977761547867e+002 1.977761544808e+002 1.972014838568e+002 1.969602722869e+002 1.977720957760e+002 1.975788637097e+002 1.976006748689e+002 1.976496920789e+002 1.970978845577e+002 1.976915184115e+002 1.970099857573e+002 1.973415564779e+002 1.974147528235e+002 1.974827097181e+002 1.977639751805e+002 1.968511985515e+002 1.977424395981e+002 1.967894767394e+002 1.972655499719e+002 1.977808055930e+002 1.977807013616e+002 1.977705152774e+002 1.972774004278e+002 1.970837016672e+002 1.972313590209e+002 1.971327324169e+002 1.976646724611e+002 1.968101538264e+002 1.970535652859e+002 1.968665421730e+002 1.968108982940e+002 1.975192090200e+002 1.974546803232e+002 1.973844374443e+002 1.973092079740e+002 1.977263499139e+002 1.969118305272e+002 1.977526478603e+002 1.975451406030e+002 1.976298817660e+002 1.977259516582e+002 1.976752018403e+002 1.977523505789e+002 1.977126216820e+002 1.975202594513e+002 1.974546534113e+002 1.973852006998e+002 1.973100202012e+002 1.969133524375e+002 1.970479088178e+002 1.969549254784e+002 1.969548482587e+002 1.977126184978e+002 1.970470000457e+002 1.976751943587e+002 1.976303573366e+002 1.975451344138e+002 1.977825829805e+002 1.977826080875e+002 1.989345617122e+002 1.988648399054e+002 1.977809963199e+002 1.977248193046e+002 1.977775267605e+002 1.977777625011e+002 1.974660729846e+002 1.977801574399e+002 1.971543883080e+002 1.977590885189e+002 1.971296146053e+002 1.972349115718e+002 1.968180213023e+002 1.970395375570e+002 1.971213088944e+002 1.967864234776e+002 1.967882983434e+002 1.972430241380e+002 1.968265495020e+002 1.971519361632e+002 1.972001937884e+002 1.968417864773e+002 1.970059898530e+002 1.976033848477e+002 1.976516964989e+002 1.976931955131e+002 1.977417427875e+002 1.977636641396e+002 1.975758829323e+002 1.972669902935e+002 1.973445706261e+002 1.974175699226e+002 1.974853048956e+002 1.971647968056e+002 1.967872886127e+002 1.972026537078e+002 1.971615169621e+002 1.977710269335e+002 1.977798401612e+002 1.968556629185e+002 1.970920505481e+002 1.975229853347e+002 1.979138439666e+002 1.977814473362e+002 1.968320195315e+002 1.975279623248e+002 1.974641225653e+002 1.973946309205e+002 1.973200661122e+002 1.975934909263e+002 1.975861678541e+002 1.975375282674e+002 1.976439350083e+002 1.976866833664e+002 1.971094355808e+002 1.977219208429e+002 1.970213280622e+002 1.977493531133e+002 1.969264197325e+002 1.977663151504e+002 1.977492358343e+002 1.977219933132e+002 1.976868553763e+002 1.976441389364e+002 1.969264516557e+002 1.970209765939e+002 1.973204669865e+002 1.973945496017e+002 1.974640474571e+002 1.977662591105e+002 1.968366083272e+002 1.972542230892e+002 1.977677072872e+002 1.977781721693e+002 1.977781732907e+002 1.968441996203e+002 1.968074005010e+002 1.971383999713e+002 1.971958024799e+002 1.977600934276e+002 1.977366627746e+002 1.976996199802e+002 1.976594079263e+002 1.976112692243e+002 1.968739334259e+002 1.969900041261e+002 1.970796877654e+002 1.974970058166e+002 1.973582033468e+002 1.972814435190e+002 1.974290965762e+002 1.975673088220e+002 1.977733381566e+002 1.977818380401e+002 1.977818385553e+002 1.977469102914e+002 1.976845163383e+002 1.976413635304e+002 1.970263491172e+002 1.973279215555e+002 1.974019952527e+002 1.974709339498e+002 1.981612272058e+002 1.971700869141e+002 1.975912804386e+002 1.975884494183e+002 1.972495567075e+002 1.977827779491e+002 1.992887688009e+002 1.971008258566e+002 1.972619731615e+002 1.976156659729e+002 1.976626350702e+002 1.977022946690e+002 1.977585292892e+002 1.977344715550e+002 1.970732044360e+002 1.969830724366e+002 1.968822782370e+002 1.974354668112e+002 1.975017592552e+002 1.972872402867e+002 1.973637611775e+002 1.977585275537e+002 1.977344627237e+002 1.973637590788e+002 1.974356364245e+002 1.977024839008e+002 1.975018405928e+002 1.976628645030e+002 1.976160012552e+002 1.969826752274e+002 1.975623852134e+002 1.975620810671e+002 1.967879475152e+002 1.971329584174e+002 1.967944590845e+002 1.972713172166e+002 1.971858113227e+002 1.977765839521e+002 1.977764380875e+002 1.972180199889e+002 1.972246583207e+002 1.971913013168e+002 1.975969582172e+002 1.975246126508e+002 1.975406768419e+002 1.975826179763e+002 1.974781004341e+002 1.974097558079e+002 1.973362116388e+002 1.976339808368e+002 1.969476522400e+002 1.970403307087e+002 1.977444590426e+002 1.977151221626e+002 1.976782717470e+002 1.977442258145e+002 1.969474678696e+002 1.977151235300e+002 1.970402945075e+002 1.973362123996e+002 1.974097566338e+002 1.974767988899e+002 1.976782726751e+002 1.976339812965e+002 1.982644320819e+002 1.970158174917e+002 1.977819400410e+002 1.982287337314e+002 1.975330131710e+002 1.975323824461e+002 1.969340476352e+002 1.969338324115e+002 1.977196133763e+002 1.977195750563e+002 1.977805144459e+002 1.968209801754e+002 1.974099084619e+002 1.968377883460e+002 1.967972852113e+002 1.977827938969e+002 1.993575991095e+002 1.977828040113e+002 1.993134430449e+002 1.968942686558e+002 1.977695072142e+002 1.977695476824e+002 1.976401022071e+002 1.976834528658e+002 1.970287487400e+002 1.974689091019e+002 1.973255832135e+002 1.973998034715e+002 1.977475335030e+002 1.967950197226e+002 1.967973420466e+002 1.970670025007e+002 1.972371753585e+002 1.971270950460e+002 1.970811392710e+002 1.968158872388e+002 1.968862370082e+002 1.971493222801e+002 1.968040444763e+002 1.977740889609e+002 1.977740892070e+002 1.971403209993e+002 1.972284660532e+002 1.977718266075e+002 1.971069217860e+002 1.972305670224e+002 1.972169538819e+002 1.977395815796e+002 1.968614344720e+002 1.977622461669e+002 1.973416650209e+002 1.974146709916e+002 1.974828030249e+002 1.975793371820e+002 1.970010768833e+002 1.976951822393e+002 1.970900442147e+002 1.976540758297e+002 1.976001067580e+002 1.977674733101e+002 1.967882736303e+002 1.972016604675e+002 1.971732422145e+002 1.971158164505e+002 1.968827515105e+002 1.977828198325e+002 1.994050644237e+002 1.977828204485e+002 1.994533343998e+002 1.975583290927e+002 1.968293771192e+002 1.971809767475e+002 1.971497006665e+002 1.977805999644e+002 1.970682859273e+002 1.972904955271e+002 1.967960880470e+002 1.972387579374e+002 1.968211491703e+002 1.976250688671e+002 1.976706869947e+002 1.977089286103e+002 1.970565914696e+002 1.969652423793e+002 1.977129774509e+002 1.977521378547e+002 1.976756393630e+002 1.977256768810e+002 1.976308838161e+002 1.969538846269e+002 1.970460547152e+002 1.969143662018e+002 1.973107248599e+002 1.974561183421e+002 1.973858409848e+002 1.975206627478e+002 1.977542843473e+002 1.977285920090e+002 1.969039443515e+002 1.975514849855e+002 1.973016032796e+002 1.973772868034e+002 1.974480423026e+002 1.975132790892e+002 1.975446165453e+002 1.975620823077e+002 1.975017546994e+002 1.973637582870e+002 1.974354663829e+002 1.972872388062e+002 1.977585305955e+002 1.977344633315e+002 1.977025584100e+002 1.976159355396e+002 1.976629542108e+002 1.968826899428e+002 1.969824445586e+002 1.970727372749e+002 1.971259331136e+002 1.968124396996e+002 1.977804481233e+002 1.975508998158e+002 1.975436168030e+002 1.975215722857e+002 1.974569639369e+002 1.973869023655e+002 1.973118320887e+002 1.977249981518e+002 1.977516590733e+002 1.969164120612e+002 1.977134699380e+002 1.976761265601e+002 1.976313933078e+002 1.969523816241e+002 1.970450969717e+002 1.971787739657e+002 1.977743118515e+002 1.971691639551e+002 1.977755576130e+002 1.975609943904e+002 1.975627864525e+002 1.975037080928e+002 1.974375609559e+002 1.973660454993e+002 1.972896648492e+002 1.977581482731e+002 1.977339289086e+002 1.977015384781e+002 1.976617221371e+002 1.976168896832e+002 1.969851254491e+002 1.976153135904e+002 1.973651680109e+002 1.974341541164e+002 1.975029599786e+002 1.976624618770e+002 1.977021509645e+002 1.970735525334e+002 1.977345124028e+002 1.969834498260e+002 1.977585646314e+002 1.968821189831e+002 1.967993745701e+002 1.977310839098e+002 1.968950792415e+002 1.977560989214e+002 1.973720009266e+002 1.975087848005e+002 1.974436527442e+002 1.972959865513e+002 1.969723458050e+002 1.977063410781e+002 1.970631649000e+002 1.976675395239e+002 1.976212474672e+002 1.975559758768e+002 1.973309041591e+002 1.977828073369e+002 1.993641092301e+002 1.977773204096e+002 1.977796706185e+002 1.977796694993e+002 1.971664728472e+002 1.971990094938e+002 1.967927148518e+002 1.968848870579e+002 1.977706225830e+002 1.973615140222e+002 1.977740792430e+002 1.977740306413e+002 1.968252181186e+002 1.975998339556e+002 1.976490737647e+002 1.970993587927e+002 1.976910004867e+002 1.970112329042e+002 1.974834694116e+002 1.974147629947e+002 1.973424399195e+002 1.975792088054e+002 1.977643370518e+002 1.968475653696e+002 1.977427885506e+002 1.971153660377e+002 1.972485535851e+002 1.971584482553e+002 1.969186962663e+002 1.971412554154e+002 1.977823462332e+002 1.986127012147e+002 1.977823460516e+002 1.985753172016e+002 1.972912549992e+002 1.970686365853e+002 1.972618346940e+002 1.968630672410e+002 1.977653030616e+002 1.982177295828e+002 1.971428406772e+002 1.972114687712e+002 1.971564704096e+002 1.967908084711e+002 1.968927363004e+002 1.967949287071e+002 1.970870545525e+002 1.968932932762e+002 1.967893024016e+002 1.971639215853e+002 1.972128198372e+002 1.969908187622e+002 1.971896239462e+002 1.971359184182e+002 1.972139557173e+002 1.971479551165e+002 1.977787429174e+002 1.976956563936e+002 1.968576131845e+002 1.975683112675e+002 1.975821801909e+002 1.977652328103e+002 1.977441332159e+002 1.977609495371e+002 1.977376995010e+002 1.976911342332e+002 1.976492321804e+002 1.970109634011e+002 1.976103682023e+002 1.975973838741e+002 1.972765571649e+002 1.972602953240e+002 1.973538103449e+002 1.973369865219e+002 1.974104807599e+002 1.974262080647e+002 1.974932080433e+002 1.974787415946e+002 1.979937550841e+002 1.977815978139e+002 1.977815859327e+002 1.977822942225e+002 1.977822945448e+002 1.983293849702e+002 1.977821032409e+002 1.975151516019e+002 1.974500882171e+002 1.973794892247e+002 1.973039437856e+002 1.975497164239e+002 1.975741361200e+002 1.976050101059e+002 1.976534530854e+002 1.970913777166e+002 1.976946633849e+002 1.970023524057e+002 1.977282953355e+002 1.969049535842e+002 1.977540698580e+002 1.977540638275e+002 1.977282866027e+002 1.977626400903e+002 1.976946302005e+002 1.976534134802e+0