<?xml version="1.0"?>
<VTKFile type="UnstructuredGrid" version="0.1" byte_order="LittleEndian">
  <UnstructuredGrid>
    <Piece NumberOfPoints="2604" NumberOfCells="4910">
      <Points>
        <DataArray type="Float64" NumberOfComponents="3" format="ascii">
          0.000000000000e+000 0.000000000000e+000 0.000000000000e+000
          2.000000000000e+002 0.000000000000e+000 0.000000000000e+000
          2.000000000000e+002 2.000000000000e+001 0.000000000000e+000
          0.000000000000e+000 2.000000000000e+001 0.000000000000e+000
          1.492537313427e+000 0.000000000000e+000 0.000000000000e+000
          2.985074626854e+000 0.000000000000e+000 0.000000000000e+000
          4.477611940281e+000 0.000000000000e+000 0.000000000000e+000
          5.970149253708e+000 0.000000000000e+000 0.000000000000e+000
          7.462686567135e+000 0.000000000000e+000 0.000000000000e+000
          8.955223880561e+000 0.000000000000e+000 0.000000000000e+000
          1.044776119399e+001 0.000000000000e+000 0.000000000000e+000
          1.194029850741e+001 0.000000000000e+000 0.000000000000e+000
          1.343283582084e+001 0.000000000000e+000 0.000000000000e+000
          1.492537313427e+001 0.000000000000e+000 0.000000000000e+000
          1.641791044770e+001 0.000000000000e+000 0.000000000000e+000
          1.791044776112e+001 0.000000000000e+000 0.000000000000e+000
          1.940298507455e+001 0.000000000000e+000 0.000000000000e+000
          2.089552238798e+001 0.000000000000e+000 0.000000000000e+000
          2.238805970141e+001 0.000000000000e+000 0.000000000000e+000
          2.388059701484e+001 0.000000000000e+000 0.000000000000e+000
          2.537313432826e+001 0.000000000000e+000 0.000000000000e+000
          2.686567164169e+001 0.000000000000e+000 0.000000000000e+000
          2.835820895511e+001 0.000000000000e+000 0.000000000000e+000
          2.985074626854e+001 0.000000000000e+000 0.000000000000e+000
          3.134328358196e+001 0.000000000000e+000 0.000000000000e+000
          3.283582089539e+001 0.000000000000e+000 0.000000000000e+000
          3.432835820881e+001 0.000000000000e+000 0.000000000000e+000
          3.582089552224e+001 0.000000000000e+000 0.000000000000e+000
          3.731343283566e+001 0.000000000000e+000 0.000000000000e+000
          3.880597014909e+001 0.000000000000e+000 0.000000000000e+000
          4.029850746251e+001 0.000000000000e+000 0.000000000000e+000
          4.179104477594e+001 0.000000000000e+000 0.000000000000e+000
          4.328358208936e+001 0.000000000000e+000 0.000000000000e+000
          4.477611940279e+001 0.000000000000e+000 0.000000000000e+000
          4.626865671621e+001 0.000000000000e+000 0.000000000000e+000
          4.776119402964e+001 0.000000000000e+000 0.000000000000e+000
          4.925373134306e+001 0.000000000000e+000 0.000000000000e+000
          5.074626865649e+001 0.000000000000e+000 0.000000000000e+000
          5.223880596991e+001 0.000000000000e+000 0.000000000000e+000
          5.373134328334e+001 0.000000000000e+000 0.000000000000e+000
          5.522388059676e+001 0.000000000000e+000 0.000000000000e+000
          5.671641791019e+001 0.000000000000e+000 0.000000000000e+000
          5.820895522361e+001 0.000000000000e+000 0.000000000000e+000
          5.970149253704e+001 0.000000000000e+000 0.000000000000e+000
          6.119402985046e+001 0.000000000000e+000 0.000000000000e+000
          6.268656716389e+001 0.000000000000e+000 0.000000000000e+000
          6.417910447732e+001 0.000000000000e+000 0.000000000000e+000
          6.567164179075e+001 0.000000000000e+000 0.000000000000e+000
          6.716417910418e+001 0.000000000000e+000 0.000000000000e+000
          6.865671641761e+001 0.000000000000e+000 0.000000000000e+000
          7.014925373104e+001 0.000000000000e+000 0.000000000000e+000
          7.164179104447e+001 0.000000000000e+000 0.000000000000e+000
          7.313432835790e+001 0.000000000000e+000 0.000000000000e+000
          7.462686567133e+001 0.000000000000e+000 0.000000000000e+000
          7.611940298476e+001 0.000000000000e+000 0.000000000000e+000
          7.761194029819e+001 0.000000000000e+000 0.000000000000e+000
          7.910447761162e+001 0.000000000000e+000 0.000000000000e+000
          8.059701492505e+001 0.000000000000e+000 0.000000000000e+000
          8.208955223848e+001 0.000000000000e+000 0.000000000000e+000
          8.358208955191e+001 0.000000000000e+000 0.000000000000e+000
          8.507462686534e+001 0.000000000000e+000 0.000000000000e+000
          8.656716417877e+001 0.000000000000e+000 0.000000000000e+000
          8.805970149220e+001 0.000000000000e+000 0.000000000000e+000
          8.955223880563e+001 0.000000000000e+000 0.000000000000e+000
          9.104477611907e+001 0.000000000000e+000 0.000000000000e+000
          9.253731343250e+001 0.000000000000e+000 0.000000000000e+000
          9.402985074593e+001 0.000000000000e+000 0.000000000000e+000
          9.552238805936e+001 0.000000000000e+000 0.000000000000e+000
          9.701492537279e+001 0.000000000000e+000 0.000000000000e+000
          9.850746268622e+001 0.000000000000e+000 0.000000000000e+000
          9.999999999965e+001 0.000000000000e+000 0.000000000000e+000
          1.014925373131e+002 0.000000000000e+000 0.000000000000e+000
          1.029850746265e+002 0.000000000000e+000 0.000000000000e+000
          1.044776119399e+002 0.000000000000e+000 0.000000000000e+000
          1.059701492534e+002 0.000000000000e+000 0.000000000000e+000
          1.074626865668e+002 0.000000000000e+000 0.000000000000e+000
          1.089552238802e+002 0.000000000000e+000 0.000000000000e+000
          1.104477611937e+002 0.000000000000e+000 0.000000000000e+000
          1.119402985071e+002 0.000000000000e+000 0.000000000000e+000
          1.134328358205e+002 0.000000000000e+000 0.000000000000e+000
          1.149253731340e+002 0.000000000000e+000 0.000000000000e+000
          1.164179104474e+002 0.000000000000e+000 0.000000000000e+000
          1.179104477608e+002 0.000000000000e+000 0.000000000000e+000
          1.194029850742e+002 0.000000000000e+000 0.000000000000e+000
          1.208955223877e+002 0.000000000000e+000 0.000000000000e+000
          1.223880597011e+002 0.000000000000e+000 0.000000000000e+000
          1.238805970145e+002 0.000000000000e+000 0.000000000000e+000
          1.253731343280e+002 0.000000000000e+000 0.000000000000e+000
          1.268656716414e+002 0.000000000000e+000 0.000000000000e+000
          1.283582089548e+002 0.000000000000e+000 0.000000000000e+000
          1.298507462683e+002 0.000000000000e+000 0.000000000000e+000
          1.313432835817e+002 0.000000000000e+000 0.000000000000e+000
          1.328358208952e+002 0.000000000000e+000 0.000000000000e+000
          1.343283582086e+002 0.000000000000e+000 0.000000000000e+000
          1.358208955220e+002 0.000000000000e+000 0.000000000000e+000
          1.373134328355e+002 0.000000000000e+000 0.000000000000e+000
          1.388059701489e+002 0.000000000000e+000 0.000000000000e+000
          1.402985074624e+002 0.000000000000e+000 0.000000000000e+000
          1.417910447758e+002 0.000000000000e+000 0.000000000000e+000
          1.432835820892e+002 0.000000000000e+000 0.000000000000e+000
          1.447761194027e+002 0.000000000000e+000 0.000000000000e+000
          1.462686567161e+002 0.000000000000e+000 0.000000000000e+000
          1.477611940296e+002 0.000000000000e+000 0.000000000000e+000
          1.492537313430e+002 0.000000000000e+000 0.000000000000e+000
          1.507462686564e+002 0.000000000000e+000 0.000000000000e+000
          1.522388059699e+002 0.000000000000e+000 0.000000000000e+000
          1.537313432833e+002 0.000000000000e+000 0.000000000000e+000
          1.552238805968e+002 0.000000000000e+000 0.000000000000e+000
          1.567164179102e+002 0.000000000000e+000 0.000000000000e+000
          1.582089552237e+002 0.000000000000e+000 0.000000000000e+000
          1.597014925371e+002 0.000000000000e+000 0.000000000000e+000
          1.611940298505e+002 0.000000000000e+000 0.000000000000e+000
          1.626865671640e+002 0.000000000000e+000 0.000000000000e+000
          1.641791044774e+002 0.000000000000e+000 0.000000000000e+000
          1.656716417909e+002 0.000000000000e+000 0.000000000000e+000
          1.671641791043e+002 0.000000000000e+000 0.000000000000e+000
          1.686567164177e+002 0.000000000000e+000 0.000000000000e+000
          1.701492537312e+002 0.000000000000e+000 0.000000000000e+000
          1.716417910446e+002 0.000000000000e+000 0.000000000000e+000
          1.731343283581e+002 0.000000000000e+000 0.000000000000e+000
          1.746268656715e+002 0.000000000000e+000 0.000000000000e+000
          1.761194029849e+002 0.000000000000e+000 0.000000000000e+000
          1.776119402984e+002 0.000000000000e+000 0.000000000000e+000
          1.791044776118e+002 0.000000000000e+000 0.000000000000e+000
          1.805970149253e+002 0.000000000000e+000 0.000000000000e+000
          1.820895522387e+002 0.000000000000e+000 0.000000000000e+000
          1.835820895521e+002 0.000000000000e+000 0.000000000000e+000
          1.850746268656e+002 0.000000000000e+000 0.000000000000e+000
          1.865671641790e+002 0.000000000000e+000 0.000000000000e+000
          1.880597014925e+002 0.000000000000e+000 0.000000000000e+000
          1.895522388059e+002 0.000000000000e+000 0.000000000000e+000
          1.910447761194e+002 0.000000000000e+000 0.000000000000e+000
          1.925373134328e+002 0.000000000000e+000 0.000000000000e+000
          1.940298507462e+002 0.000000000000e+000 0.000000000000e+000
          1.955223880597e+002 0.000000000000e+000 0.000000000000e+000
          1.970149253731e+002 0.000000000000e+000 0.000000000000e+000
          1.985074626866e+002 0.000000000000e+000 0.000000000000e+000
          2.000000000000e+002 1.428571428570e+000 0.000000000000e+000
          2.000000000000e+002 2.857142857140e+000 0.000000000000e+000
[...]
      <PointData Scalars="MEAN_PRESSURE">
        <DataArray type="Float64" Name="MEAN_PRESSURE" format="ascii">
          2.000000000000e+002 1.999997103079e+002 1.999997102926e+002 2.000000000000e+002 1.985747589486e+002 1.968338126610e+002 1.961964792532e+002 1.960658852268e+002 1.961172013865e+002 1.962053846636e+002 1.962953507795e+002 1.963839303864e+002 1.964726282521e+002 1.965621226515e+002 1.966523215507e+002 1.967430018201e+002 1.968339085761e+002 1.969248088491e+002 1.970155338140e+002 1.971059153105e+002 1.971958314106e+002 1.972850801348e+002 1.973735842129e+002 1.974612325579e+002 1.975479269435e+002 1.976335412929e+002 1.977180194959e+002 1.978012644104e+002 1.978831704995e+002 1.979636775504e+002 1.980427106238e+002 1.981202477179e+002 1.981961822185e+002 1.982704888322e+002 1.983431176982e+002 1.984140098509e+002 1.984831681782e+002 1.985505118597e+002 1.986160508724e+002 1.986797831911e+002 1.987416353168e+002 1.988015722805e+002 1.988596730159e+002 1.989158816372e+002 1.989702286249e+002 1.990227024842e+002 1.990733487114e+002 1.991220774144e+002 1.991690488811e+002 1.992141692417e+002 1.992574870867e+002 1.992990508680e+002 1.993389211006e+002 1.993769988683e+002 1.994134518468e+002 1.994482746664e+002 1.994815212659e+002 1.995131746655e+002 1.995433019790e+002 1.995720217908e+002 1.995992334154e+002 1.996250650290e+002 1.996495533422e+002 1.996727664881e+002 1.996947141547e+002 1.997154520954e+002 1.997350294637e+002 1.997534808585e+002 1.997708710145e+002 1.997872205221e+002 1.998026064617e+002 1.998170337651e+002 1.998305754241e+002 1.998432578323e+002 1.998551234987e+002 1.998662242708e+002 1.998765825163e+002 1.998862577142e+002 1.998952685768e+002 1.999036595192e+002 1.999114540461e+002 1.999187039491e+002 1.999254261390e+002 1.999316617866e+002 1.999374327579e+002 1.999427705121e+002 1.999477046785e+002 1.999522587496e+002 1.999564576016e+002 1.999603256603e+002 1.999638849705e+002 1.999671572993e+002 1.999701626505e+002 1.999729182257e+002 1.999754409857e+002 1.999777529494e+002 1.999798647871e+002 1.999817939551e+002 1.999835546641e+002 1.999851604260e+002 1.999866219811e+002 1.999879501837e+002 1.999891585852e+002 1.999902541260e+002 1.999912475007e+002 1.999921474453e+002 1.999929621631e+002 1.999936982091e+002 1.999943620929e+002 1.999949616717e+002 1.999955011346e+002 1.999959865791e+002 1.999964231100e+002 1.999968154651e+002 1.999971670802e+002 1.999974817070e+002 1.999977636687e+002 1.999980152756e+002 1.999982397885e+002 1.999984399007e+002 1.999986181262e+002 1.999987763929e+002 1.999989165165e+002 1.999990404483e+002 1.999991497539e+002 1.999992457619e+002 1.999993300061e+002 1.999994035736e+002 1.999994671921e+002 1.999995220709e+002 1.999995688821e+002 1.999996078159e+002 1.999996399585e+002 1.999996656662e+002 1.999996856071e+002 1.999996988612e+002 1.999997073268e+002 1.999997100166e+002 1.999997097449e+002 1.999997103344e+002 1.999997102167e+002 1.999997101600e+002 1.999997100532e+002 1.999997099836e+002 1.999997100326e+002 1.999997100385e+002 1.999997099059e+002 1.999997102751e+002 1.999997097167e+002 1.999997099989e+002 1.999997073135e+002 1.999996988516e+002 1.999996855992e+002 1.999996656583e+002 1.999996399541e+002 1.999996078334e+002 1.999995689228e+002 1.999995221201e+002 1.999994672442e+002 1.999994036305e+002 1.999993300339e+002 1.999992458031e+002 1.999991497657e+002 1.999990404263e+002 1.999989165021e+002 1.999987763340e+002 1.999986180367e+002 1.999984402074e+002 1.999982400682e+002 1.999980153668e+002 1.999977636878e+002 1.999974818833e+002 1.999971668485e+002 1.999968155139e+002 1.999964235169e+002 1.999959871324e+002 1.999955011776e+002 1.999949615581e+002 1.999943618378e+002 1.999936981160e+002 1.999929619432e+002 1.999921477108e+002 1.999912479650e+002 1.999902535551e+002 1.999891582279e+002 1.999879498034e+002 1.999866219429e+002 1.999851600662e+002 1.999835550003e+002 1.999817943953e+002 1.999798632958e+002 1.999777520133e+002 1.999754402729e+002 1.999729181872e+002 1.999701622592e+002 1.999671554843e+002 1.999638855258e+002 1.999603260064e+002 1.999564577126e+002 1.999522586428e+002 1.999477058309e+002 1.999427748350e+002 1.999374365152e+002 1.999316615043e+002 1.999254309978e+002 1.999187040701e+002 1.999114554668e+002 1.999036543683e+002 1.998952716078e+002 1.998862579838e+002 1.998765910143e+002 1.998662284260e+002 1.998551271628e+002 1.998432538190e+002 1.998305708949e+002 1.998170385911e+002 1.998026044182e+002 1.997872297881e+002 1.997708682257e+002 1.997534820055e+002 1.997350221660e+002 1.997154480853e+002 1.996947171005e+002 1.996727700428e+002 1.996495675732e+002 1.996250607253e+002 1.995992131221e+002 1.995719744529e+002 1.995433057365e+002 1.995131728985e+002 1.994815139997e+002 1.994482949114e+002 1.994134687606e+002 1.993770115612e+002 1.993388773627e+002 1.992990457406e+002 1.992574826878e+002 1.992141210968e+002 1.991690219404e+002 1.991221034788e+002 1.990733338162e+002 1.990227417631e+002 1.989702393719e+002 1.989158734942e+002 1.988596575733e+002 1.988015451050e+002 1.987415570380e+002 1.986797118184e+002 1.986160023304e+002 1.985504354244e+002 1.984830716194e+002 1.984138916264e+002 1.983429483132e+002 1.982702786558e+002 1.981959271980e+002 1.981199202869e+002 1.980422991766e+002 1.979631506256e+002 1.978824925938e+002 1.978004042582e+002 1.977169531339e+002 1.976322143433e+002 1.975462433064e+002 1.974591046371e+002 1.973708823428e+002 1.972816497296e+002 1.971914861611e+002 1.971004550702e+002 1.970086592265e+002 1.969161202841e+002 1.968229687154e+002 1.967292263074e+002 1.966349736303e+002 1.965402987661e+002 1.964453069000e+002 1.963497902747e+002 1.962529905149e+002 1.961538111856e+002 1.960573786100e+002 1.960028366839e+002 1.961286196088e+002 1.967771800258e+002 1.985213430980e+002 2.000000000000e+002 2.000000000000e+002 2.000000000000e+002 2.000000000000e+002 2.000000000000e+002 2.000000000000e+002 2.000000000000e+002 2.000000000000e+002 2.000000000000e+002 2.000000000000e+002 2.000000000000e+002 2.000000000000e+002 2.000000000000e+002 1.999995808408e+002 1.962255238659e+002 1.999991000465e+002 1.999978972272e+002 1.999952037586e+002 1.999896492914e+002 1.999786962518e+002 1.973278821191e+002 1.999584245232e+002 1.979283066044e+002 1.984530522848e+002 1.988949439737e+002 1.993923251575e+002 1.996122759938e+002 1.997622793241e+002 1.998607506258e+002 1.999221152609e+002 1.967902444652e+002 1.991690438683e+002 1.999427654898e+002 1.999425371874e+002 1.998952702375e+002 1.998170353534e+002 1.996947184161e+002 1.995131820200e+002 1.999986436773e+002 1.999968718807e+002 1.999930504396e+002 1.995131527757e+002 1.996908442573e+002 1.998181610718e+002 1.998936873282e+002 1.999853358537e+002 1.999701574378e+002 1.976289864692e+002 1.981872254682e+002 1.986867783905e+002 1.999702958929e+002 1.999851727507e+002 1.999929684200e+002 1.999968144418e+002 1.999986176487e+002 1.986790433525e+002 1.981951894730e+002 1.976324894061e+002 1.999993963454e+002 1.999993919937e+002 1.990661616397e+002 1.992687660371e+002 1.965465680896e+002 1.970223653817e+002 1.999996665118e+002 1.960243085878e+002 1.999996672030e+002 1.959619241351e+002 1.964930334542e+002 1.970930737842e+002 1.990109820042e+002 1.993048646480e+002 1.999990970281e+002 1.999221199062e+002 1.999978925954e+002 1.998607694799e+002 1.997623073226e+002 1.996123083981e+002 1.994031446831e+002 1.999583880513e+002 1.999952462212e+002 1.999898147713e+002 1.999790171495e+002 1.979219724240e+002 1.984426075612e+002 1.999584615049e+002 1.999788281343e+002 1.999897176117e+002 1.999952374092e+002 1.996122152785e+002 1.997622418513e+002 1.998607222665e+002 1.999978925182e+002 1.999222340589e+002 1.999990967905e+002 1.988880196580e+002 1.984486856799e+002 1.979230627057e+002 1.973268082048e+002 1.999995635858e+002 1.999995664609e+002 1.962533209671e+002 1.973750082911e+002 1.994206756814e+002 1.988444061159e+002 1.999996874839e+002 1.961798003740e+002 1.967978251428e+002 1.962520236114e+002 1.967868220871e+002 1.991423243518e+002 1.990401748272e+002 1.992865061440e+002 1.965035001064e+002 1.970352743860e+002 1.991700731378e+002 1.999994481554e+002 1.999936284141e+002 1.999964363853e+002 1.999864834644e+002 1.999984459034e+002 1.999726459922e+002 1.999022671673e+002 1.997120079802e+002 1.995383007493e+002 1.998292484410e+002 1.977143249383e+002 1.986222326884e+002 1.981275437659e+002 1.999379464857e+002 1.991690272634e+002 1.999996963028e+002 1.966517200489e+002 1.999996963083e+002 1.965797718793e+002 1.999065108579e+002 1.998352044809e+002 1.997225896614e+002 1.995537488330e+002 1.999660024083e+002 1.999351755401e+002 1.999493730800e+002 1.999829352333e+002 1.987633000005e+002 1.999918314695e+002 1.982965880838e+002 1.999962698415e+002 1.977471601183e+002 1.999983698248e+002 1.999983627385e+002 1.999988385325e+002 1.999962544071e+002 1.999972895167e+002 1.999917502265e+002 1.999939162417e+002 1.999827757532e+002 1.999870579735e+002 1.977593332861e+002 1.999737304472e+002 1.999659922685e+002 1.983036279444e+002 1.980953782901e+002 1.995539854689e+002 1.997234231444e+002 1.998362364058e+002 1.996653420929e+002 1.997976344660e+002 1.999061602134e+002 1.998831748053e+002 1.986113843691e+002 1.999493837220e+002 1.999362484018e+002 1.999988286136e+002 1.975151405544e+002 1.999972340881e+002 1.981036865093e+002 1.999938424777e+002 1.986023053624e+002 1.999869098807e+002 1.994643790779e+002 1.996622496175e+002 1.997956485850e+002 1.998817210697e+002 1.999734640628e+002 1.967505421422e+002 1.999992958892e+002 1.999992921377e+002 1.993125193128e+002 1.989997774829e+002 1.971425989085e+002 1.999489755579e+002 1.997980719889e+002 1.998836084571e+002 1.996663921677e+002 1.994650264148e+002 1.975213309268e+002 1.982904385499e+002 1.999988195406e+002 1.987596895375e+002 1.999972558744e+002 1.999919080625e+002 1.999662816984e+002 1.999830855807e+002 1.975458570912e+002 1.999994694954e+002 1.999994694686e+002 1.992391039088e+002 1.964466408082e+002 1.999993038024e+002 1.999526506199e+002 1.999636234386e+002 1.999816522988e+002 1.988026285992e+002 1.999911749311e+002 1.983484862174e+002 1.996477739397e+002 1.997860292531e+002 1.998758369058e+002 1.999989190916e+002 1.974582120798e+002 1.999975044978e+002 1.969725167674e+002 1.994511295162e+002 1.999996386487e+002 1.999996350698e+002 1.999992347769e+002 1.994856176517e+002 1.987340159862e+002 1.993434108632e+002 1.989622723513e+002 1.960456786529e+002 1.972068701819e+002 1.963654429503e+002 1.966027180119e+002 1.972073018465e+002 1.999110957642e+002 1.998428680880e+002 1.997344140164e+002 1.995710846444e+002 1.999960110808e+002 1.977964348439e+002 1.999982514898e+002 1.999314299551e+002 1.999753842959e+002 1.999959697712e+002 1.999880079367e+002 1.999982322312e+002 1.999943901012e+002 1.999119917228e+002 1.998428418367e+002 1.997357997665e+002 1.995731164708e+002 1.978045140221e+002 1.985524598898e+002 1.980393507472e+002 1.980391480361e+002 1.999943888073e+002 1.985476609258e+002 1.999880019543e+002 1.999755387675e+002 1.999314088709e+002 1.999996977127e+002 1.999996985237e+002 1.967362785918e+002 1.965847978433e+002 1.999996450941e+002 1.960604054299e+002 1.999995216663e+002 1.999995303813e+002 1.961261404701e+002 1.999996163269e+002 1.963154230617e+002 1.960883126821e+002 1.989485624129e+002 1.993552872659e+002 1.972578398247e+002 1.964093078343e+002 1.989113522973e+002 1.969348954889e+002 1.969167086021e+002 1.993816029723e+002 1.966835265617e+002 1.990448001441e+002 1.992344004644e+002 1.966250226059e+002 1.983263651331e+002 1.999648619187e+002 1.999822214789e+002 1.999914662508e+002 1.999974486196e+002 1.999989029769e+002 1.999510006825e+002 1.994554261567e+002 1.996544146314e+002 1.997904489988e+002 1.998786215503e+002 1.990977475177e+002 1.969339988034e+002 1.992434015613e+002 1.990844857358e+002 1.999992574720e+002 1.999996052484e+002 1.974821825345e+002 1.987746122638e+002 1.961424295792e+002 1.959898602437e+002 1.999996603029e+002 1.966604774813e+002 1.999183601027e+002 1.998545608595e+002 1.997526070715e+002 1.995979234693e+002 1.999602290647e+002 1.999565481268e+002 1.999258192788e+002 1.999799533793e+002 1.999902997320e+002 1.988569407005e+002 1.999955234438e+002 1.984105484228e+002 1.999980255719e+002 1.978786526696e+002 1.999990374549e+002 1.999980175828e+002 1.999955320931e+002 1.999903314336e+002 1.999800135635e+002 1.978780016439e+002 1.984084734494e+002 1.995989064529e+002 1.997524686698e+002 1.998544725753e+002 1.999990346421e+002 1.973751325898e+002 1.994168279912e+002 1.999991050689e+002 1.999995454493e+002 1.999995455066e+002 1.974161251888e+002 1.971847069735e+002 1.962988063643e+002 1.992181674013e+002 1.999987080007e+002 1.999970147884e+002 1.999925190653e+002 1.999842860286e+002 1.999682570859e+002 1.975852438756e+002 1.982374615709e+002 1.987142575722e+002 1.998906330657e+002 1.996833843980e+002 1.994970624390e+002 1.998078667601e+002 1.999459881839e+002 1.999993564362e+002 1.999996733136e+002 1.999996733262e+002 1.999978494773e+002 1.999898920854e+002 1.999791664200e+002 1.984376751189e+002 1.996166721548e+002 1.997652411568e+002 1.998626387209e+002 1.959993607318e+002 1.991190388753e+002 1.999591478052e+002 1.999577238010e+002 1.994023294222e+002 1.999997040084e+002 1.975269392654e+002 1.988165816265e+002 1.994404905413e+002 1.999700504498e+002 1.999851004621e+002 1.999929317507e+002 1.999986177693e+002 1.999968155202e+002 1.986820055817e+002 1.981986949318e+002 1.976322358939e+002 1.998170315393e+002 1.998952683767e+002 1.995131553470e+002 1.996947076917e+002 1.999986175735e+002 1.999968148688e+002 1.996946800162e+002 1.998172501007e+002 1.999929600818e+002 1.998953284432e+002 1.999851567410e+002 1.999701829104e+002 1.981961343122e+002 1.999429564223e+002 1.999427641043e+002 1.968788856556e+002 1.989632512957e+002 1.968438859615e+002 1.994680586759e+002 1.991805325276e+002 1.999994859575e+002 1.999994803538e+002 1.992980339467e+002 1.993208476595e+002 1.992013725645e+002 1.999618981245e+002 1.999156382253e+002 1.999281775495e+002 1.999546859635e+002 1.998707800447e+002 1.997780470449e+002 1.996357919767e+002 1.999767786773e+002 1.979979529822e+002 1.985124577085e+002 1.999976633946e+002 1.999947098801e+002 1.999886502958e+002 1.999976457258e+002 1.979975140108e+002 1.999947103118e+002 1.985123709066e+002 1.996358047292e+002 1.997780566310e+002 1.998693199872e+002 1.999886508810e+002 1.999767794133e+002 1.961020618168e+002 1.963946160053e+002 1.999996766679e+002 1.960547382327e+002 1.999223655971e+002 1.999218726549e+002 1.979211315493e+002 1.979202108633e+002 1.999952567834e+002 1.999952525024e+002 1.999996286539e+002 1.966844691838e+002 1.962076747470e+002 1.973798454824e+002 1.967794799483e+002 1.999997045205e+002 1.976280150885e+002 1.999997048505e+002 1.974595646943e+002 1.965492030920e+002 1.999991891241e+002 1.999991909497e+002 1.999787698934e+002 1.999896873430e+002 1.984506628479e+002 1.998602780511e+002 1.996111619307e+002 1.997615295218e+002 1.999978949582e+002 1.970788024632e+002 1.970943842351e+002 1.963683874484e+002 1.993626514724e+002 1.989373178437e+002 1.963728138861e+002 1.972477461029e+002 1.976526669652e+002 1.990337584250e+002 1.971631518555e+002 1.999993874244e+002 1.999993874539e+002 1.989953674171e+002 1.993337399076e+002 1.999992922885e+002 1.988452422046e+002 1.993407602610e+002 1.992943255749e+002 1.999972678472e+002 1.975160255052e+002 1.999988270948e+002 1.996480066984e+002 1.997859023405e+002 1.998759336108e+002 1.999529093983e+002 1.982992446740e+002 1.999917991898e+002 1.987649304227e+002 1.999828719586e+002 1.999633655193e+002 1.999990937069e+002 1.969200214549e+002 1.992397587538e+002 1.991315960794e+002 1.988863519464e+002 1.965561040993e+002 1.999997053606e+002 1.978120687796e+002 1.999997053749e+002 1.979745326142e+002 1.960822214449e+002 1.973310099229e+002 1.991619004525e+002 1.990353824142e+002 1.999996315801e+002 1.986572423845e+002 1.995220358855e+002 1.970870103968e+002 1.993677742163e+002 1.967107533937e+002 1.999736466264e+002 1.999870066212e+002 1.999938911041e+002 1.985975165100e+002 1.980980501801e+002 1.999944342729e+002 1.999982172791e+002 1.999880963970e+002 1.999959387937e+002 1.999757231422e+002 1.980333739245e+002 1.985426392133e+002 1.978100788438e+002 1.995749099108e+002 1.998446792492e+002 1.997369815030e+002 1.999123353478e+002 1.999983573306e+002 1.999962427372e+002 1.977525258792e+002 1.999358227325e+002 1.995515236556e+002 1.997210640391e+002 1.998342134459e+002 1.999058976689e+002 1.999310365041e+002 1.999427680726e+002 1.998952448739e+002 1.996946707030e+002 1.998170267450e+002 1.995131268764e+002 1.999986179678e+002 1.999968150469e+002 1.999929711917e+002 1.999701596637e+002 1.999851786719e+002 1.976335062293e+002 1.981949541594e+002 1.986796762755e+002 1.989320582289e+002 1.972186477788e+002 1.999996263579e+002 1.961048314394e+002 1.999303144650e+002 1.999131022498e+002 1.998457429932e+002 1.997388905670e+002 1.995776719609e+002 1.999958650819e+002 1.999981849024e+002 1.978220256857e+002 1.999944967697e+002 1.999881987444e+002 1.999758946039e+002 1.980250271106e+002 1.985376183599e+002 1.991533190952e+002 1.999993964088e+002 1.991153179778e+002 1.999994461280e+002 1.999420765707e+002 1.999432106829e+002 1.998971122667e+002 1.998199605470e+002 1.996992546304e+002 1.995197644456e+002 1.999985953813e+002 1.999967651918e+002 1.999928167010e+002 1.999848733371e+002 1.999705359620e+002 1.982099454019e+002 1.999699111925e+002 1.996975224816e+002 1.998151606229e+002 1.998964113450e+002 1.999850564211e+002 1.999929094017e+002 1.986837284294e+002 1.999968189354e+002 1.982007813155e+002 1.999986197018e+002 1.976312057402e+002 1.967919423240e+002 1.999964926120e+002 1.977028768287e+002 1.999984715510e+002 1.997109563196e+002 1.999018464611e+002 1.998283677957e+002 1.995367657085e+002 1.981381166727e+002 1.999935263216e+002 1.986312074463e+002 1.999862802631e+002 1.999722224694e+002 1.999388309274e+002 1.962156580259e+002 1.999997049561e+002 1.977416600210e+002 1.999995138886e+002 1.999995992923e+002 1.999995992406e+002 1.991045095037e+002 1.992300192830e+002 1.970608293261e+002 1.976452934156e+002 1.999992393840e+002 1.961744668935e+002 1.999993869312e+002 1.999993849587e+002 1.973022473633e+002 1.999632403031e+002 1.999814761084e+002 1.988096518990e+002 1.999910844494e+002 1.983553314229e+002 1.998766382583e+002 1.997860261814e+002 1.996496950897e+002 1.999528351548e+002 1.999989377338e+002 1.974372239274e+002 1.999975324570e+002 1.988843682788e+002 1.993992183616e+002 1.990718651667e+002 1.965279980763e+002 1.963399362450e+002 1.999996900096e+002 1.962790705898e+002 1.999996899992e+002 1.961794002380e+002 1.995241278203e+002 1.986590120599e+002 1.994400846200e+002 1.966074523174e+002 1.999989869650e+002 1.960691892701e+002 1.990061758909e+002 1.992750614000e+002 1.990636709785e+002 1.970335398361e+002 1.965338293563e+002 1.968141207077e+002 1.987504074166e+002 1.965310110862e+002 1.969099483845e+002 1.990941727189e+002 1.962547459400e+002 1.964388065214e+002 1.991950136256e+002 1.989762001296e+002 1.992838755290e+002 1.990280331818e+002 1.999995662577e+002 1.960906889831e+002 1.974930327882e+002 1.999465978950e+002 1.999544546531e+002 1.999989835412e+002 1.999976386649e+002 1.999987564413e+002 1.999971071617e+002 1.999911109797e+002 1.999815274639e+002 1.983538032623e+002 1.999678856075e+002 1.999621010584e+002 1.994832016468e+002 1.994353952785e+002 1.996742093717e+002 1.996375535178e+002 1.997792243952e+002 1.998035723464e+002 1.998868167518e+002 1.998714969063e+002 1.959682559337e+002 1.999996653442e+002 1.999996649265e+002 1.999996883191e+002 1.999996883241e+002 1.960456810935e+002 1.999996820586e+002 1.999075783398e+002 1.998369383249e+002 1.997252575494e+002 1.995576472045e+002 1.999346237022e+002 1.999500014652e+002 1.999655768309e+002 1.999827054172e+002 1.987714202684e+002 1.999917142191e+002 1.983063863724e+002 1.999962132943e+002 1.977583447429e+002 1.999983439627e+002 1.999983436959e+002 1.999962127240e+002 1.999988485071e+002 1.999917085594e+002 1.999826940907e+0