<?xml version="1.0"?>
<VTKFile type="UnstructuredGrid" version="0.1" byte_order="LittleEndian">
  <UnstructuredGrid>
    <Piece NumberOfPoints="2604" NumberOfCells="4910">
      <Points>
        <DataArray type="Float64" NumberOfComponents="3" format="ascii">
          0.000000000000e+000 0.000000000000e+000 0.000000000000e+000
          2.000000000000e+002 0.000000000000e+000 0.000000000000e+000
          2.000000000000e+002 2.000000000000e+001 0.000000000000e+000
          0.000000000000e+000 2.000000000000e+001 0.000000000000e+000
          1.492537313427e+000 0.000000000000e+000 0.000000000000e+000
          2.985074626854e+000 0.000000000000e+000 0.000000000000e+000
          4.477611940281e+000 0.000000000000e+000 0.000000000000e+000
          5.970149253708e+000 0.000000000000e+000 0.000000000000e+000
          7.462686567135e+000 0.000000000000e+000 0.000000000000e+000
          8.955223880561e+000 0.000000000000e+000 0.000000000000e+000
          1.044776119399e+001 0.000000000000e+000 0.000000000000e+000
          1.194029850741e+001 0.000000000000e+000 0.000000000000e+000
          1.343283582084e+001 0.000000000000e+000 0.000000000000e+000
          1.492537313427e+001 0.000000000000e+000 0.000000000000e+000
          1.641791044770e+001 0.000000000000e+000 0.000000000000e+000
          1.791044776112e+001 0.000000000000e+000 0.000000000000e+000
          1.940298507455e+001 0.000000000000e+000 0.000000000000e+000
          2.089552238798e+001 0.000000000000e+000 0.000000000000e+000
          2.238805970141e+001 0.000000000000e+000 0.000000000000e+000
          2.388059701484e+001 0.000000000000e+000 0.000000000000e+000
          2.537313432826e+001 0.000000000000e+000 0.000000000000e+000
          2.686567164169e+001 0.000000000000e+000 0.000000000000e+000
          2.835820895511e+001 0.000000000000e+000 0.000000000000e+000
          2.985074626854e+001 0.000000000000e+000 0.000000000000e+000
          3.134328358196e+001 0.000000000000e+000 0.000000000000e+000
          3.283582089539e+001 0.000000000000e+000 0.000000000000e+000
          3.432835820881e+001 0.000000000000e+000 0.000000000000e+000
          3.582089552224e+001 0.000000000000e+000 0.000000000000e+000
          3.731343283566e+001 0.000000000000e+000 0.000000000000e+000
          3.880597014909e+001 0.000000000000e+000 0.000000000000e+000
          4.029850746251e+001 0.000000000000e+000 0.000000000000e+000
          4.179104477594e+001 0.000000000000e+000 0.000000000000e+000
          4.328358208936e+001 0.000000000000e+000 0.000000000000e+000
          4.477611940279e+001 0.000000000000e+000 0.000000000000e+000
          4.626865671621e+001 0.000000000000e+000 0.000000000000e+000
          4.776119402964e+001 0.000000000000e+000 0.000000000000e+000
          4.925373134306e+001 0.000000000000e+000 0.000000000000e+000
          5.074626865649e+001 0.000000000000e+000 0.000000000000e+000
          5.223880596991e+001 0.000000000000e+000 0.000000000000e+000
          5.373134328334e+001 0.000000000000e+000 0.000000000000e+000
          5.522388059676e+001 0.000000000000e+000 0.000000000000e+000
          5.671641791019e+001 0.000000000000e+000 0.000000000000e+000
          5.820895522361e+001 0.000000000000e+000 0.000000000000e+000
          5.970149253704e+001 0.000000000000e+000 0.000000000000e+000
          6.119402985046e+001 0.000000000000e+000 0.000000000000e+000
          6.268656716389e+001 0.000000000000e+000 0.000000000000e+000
          6.417910447732e+001 0.000000000000e+000 0.000000000000e+000
          6.567164179075e+001 0.000000000000e+000 0.000000000000e+000
          6.716417910418e+001 0.000000000000e+000 0.000000000000e+000
          6.865671641761e+001 0.000000000000e+000 0.000000000000e+000
          7.014925373104e+001 0.000000000000e+000 0.000000000000e+000
          7.164179104447e+001 0.000000000000e+000 0.000000000000e+000
          7.313432835790e+001 0.000000000000e+000 0.000000000000e+000
          7.462686567133e+001 0.000000000000e+000 0.000000000000e+000
          7.611940298476e+001 0.000000000000e+000 0.000000000000e+000
          7.761194029819e+001 0.000000000000e+000 0.000000000000e+000
          7.910447761162e+001 0.000000000000e+000 0.000000000000e+000
          8.059701492505e+001 0.000000000000e+000 0.000000000000e+000
          8.208955223848e+001 0.000000000000e+000 0.000000000000e+000
          8.358208955191e+001 0.000000000000e+000 0.000000000000e+000
          8.507462686534e+001 0.000000000000e+000 0.000000000000e+000
          8.656716417877e+001 0.000000000000e+000 0.000000000000e+000
          8.805970149220e+001 0.000000000000e+000 0.000000000000e+000
          8.955223880563e+001 0.000000000000e+000 0.000000000000e+000
          9.104477611907e+001 0.000000000000e+000 0.000000000000e+000
          9.253731343250e+001 0.000000000000e+000 0.000000000000e+000
          9.402985074593e+001 0.000000000000e+000 0.000000000000e+000
          9.552238805936e+001 0.000000000000e+000 0.000000000000e+000
          9.701492537279e+001 0.000000000000e+000 0.000000000000e+000
          9.850746268622e+001 0.000000000000e+000 0.000000000000e+000
          9.999999999965e+001 0.000000000000e+000 0.000000000000e+000
          1.014925373131e+002 0.000000000000e+000 0.000000000000e+000
          1.029850746265e+002 0.000000000000e+000 0.000000000000e+000
          1.044776119399e+002 0.000000000000e+000 0.000000000000e+000
          1.059701492534e+002 0.000000000000e+000 0.000000000000e+000
          1.074626865668e+002 0.000000000000e+000 0.000000000000e+000
          1.089552238802e+002 0.000000000000e+000 0.000000000000e+000
          1.104477611937e+002 0.000000000000e+000 0.000000000000e+000
          1.119402985071e+002 0.000000000000e+000 0.000000000000e+000
          1.134328358205e+002 0.000000000000e+000 0.000000000000e+000
          1.149253731340e+002 0.000000000000e+000 0.000000000000e+000
          1.164179104474e+002 0.000000000000e+000 0.000000000000e+000
          1.179104477608e+002 0.000000000000e+000 0.000000000000e+000
          1.194029850742e+002 0.000000000000e+000 0.000000000000e+000
          1.208955223877e+002 0.000000000000e+000 0.000000000000e+000
          1.223880597011e+002 0.000000000000e+000 0.000000000000e+000
          1.238805970145e+002 0.000000000000e+000 0.000000000000e+000
          1.253731343280e+002 0.000000000000e+000 0.000000000000e+000
          1.268656716414e+002 0.000000000000e+000 0.000000000000e+000
          1.283582089548e+002 0.000000000000e+000 0.000000000000e+000
          1.298507462683e+002 0.000000000000e+000 0.000000000000e+000
          1.313432835817e+002 0.000000000000e+000 0.000000000000e+000
          1.328358208952e+002 0.000000000000e+000 0.000000000000e+000
          1.343283582086e+002 0.000000000000e+000 0.000000000000e+000
          1.358208955220e+002 0.000000000000e+000 0.000000000000e+000
          1.373134328355e+002 0.000000000000e+000 0.000000000000e+000
          1.388059701489e+002 0.000000000000e+000 0.000000000000e+000
          1.402985074624e+002 0.000000000000e+000 0.000000000000e+000
          1.417910447758e+002 0.000000000000e+000 0.000000000000e+000
          1.432835820892e+002 0.000000000000e+000 0.000000000000e+000
          1.447761194027e+002 0.000000000000e+000 0.000000000000e+000
          1.462686567161e+002 0.000000000000e+000 0.000000000000e+000
          1.477611940296e+002 0.000000000000e+000 0.000000000000e+000
          1.492537313430e+002 0.000000000000e+000 0.000000000000e+000
          1.507462686564e+002 0.000000000000e+000 0.000000000000e+000
          1.522388059699e+002 0.000000000000e+000 0.000000000000e+000
          1.537313432833e+002 0.000000000000e+000 0.000000000000e+000
          1.552238805968e+002 0.000000000000e+000 0.000000000000e+000
          1.567164179102e+002 0.000000000000e+000 0.000000000000e+000
          1.582089552237e+002 0.000000000000e+000 0.000000000000e+000
          1.597014925371e+002 0.000000000000e+000 0.000000000000e+000
          1.611940298505e+002 0.000000000000e+000 0.000000000000e+000
          1.626865671640e+002 0.000000000000e+000 0.000000000000e+000
          1.641791044774e+002 0.000000000000e+000 0.000000000000e+000
          1.656716417909e+002 0.000000000000e+000 0.000000000000e+000
          1.671641791043e+002 0.000000000000e+000 0.000000000000e+000
          1.686567164177e+002 0.000000000000e+000 0.000000000000e+000
          1.701492537312e+002 0.000000000000e+000 0.000000000000e+000
          1.716417910446e+002 0.000000000000e+000 0.000000000000e+000
          1.731343283581e+002 0.000000000000e+000 0.000000000000e+000
          1.746268656715e+002 0.000000000000e+000 0.000000000000e+000
          1.761194029849e+002 0.000000000000e+000 0.000000000000e+000
          1.776119402984e+002 0.000000000000e+000 0.000000000000e+000
          1.791044776118e+002 0.000000000000e+000 0.000000000000e+000
          1.805970149253e+002 0.000000000000e+000 0.000000000000e+000
          1.820895522387e+002 0.000000000000e+000 0.000000000000e+000
          1.835820895521e+002 0.000000000000e+000 0.000000000000e+000
          1.850746268656e+002 0.000000000000e+000 0.000000000000e+000
          1.865671641790e+002 0.000000000000e+000 0.000000000000e+000
          1.880597014925e+002 0.000000000000e+000 0.000000000000e+000
          1.895522388059e+002 0.000000000000e+000 0.000000000000e+000
          1.910447761194e+002 0.000000000000e+000 0.000000000000e+000
          1.925373134328e+002 0.000000000000e+000 0.000000000000e+000
          1.940298507462e+002 0.000000000000e+000 0.000000000000e+000
          1.955223880597e+002 0.000000000000e+000 0.000000000000e+000
          1.970149253731e+002 0.000000000000e+000 0.000000000000e+000
          1.985074626866e+002 0.000000000000e+000 0.000000000000e+000
          2.000000000000e+002 1.428571428570e+000 0.000000000000e+000
          2.000000000000e+002 2.857142857140e+000 0.000000000000e+000
[...]
      <PointData Scalars="MEAN_PRESSURE">
        <DataArray type="Float64" Name="MEAN_PRESSURE" format="ascii">
          2.000000000000e+002 1.990730363349e+002 1.990730348669e+002 2.000000000000e+002 1.995087128664e+002 1.985157440060e+002 1.978412410318e+002 1.973672803607e+002 1.970511543557e+002 1.968556389794e+002 1.967410866225e+002 1.966855187370e+002 1.966678299554e+002 1.966741918941e+002 1.966942974166e+002 1.967221503988e+002 1.967536469339e+002 1.967864965842e+002 1.968195011995e+002 1.968521133843e+002 1.968841764462e+002 1.969156542411e+002 1.969466745252e+002 1.969773421283e+002 1.970077493171e+002 1.970379628515e+002 1.970680380262e+002 1.970980073352e+002 1.971278876382e+002 1.971576910250e+002 1.971874209556e+002 1.972170786774e+002 1.972466586923e+002 1.972761582869e+002 1.973055721629e+002 1.973348939030e+002 1.973641201325e+002 1.973932425575e+002 1.974222577084e+002 1.974511614113e+002 1.974799448187e+002 1.975086007446e+002 1.975371297816e+002 1.975655230237e+002 1.975937774906e+002 1.976218868707e+002 1.976498491510e+002 1.976776506371e+002 1.977052987369e+002 1.977327785556e+002 1.977600874889e+002 1.977872228070e+002 1.978141833260e+002 1.978409501591e+002 1.978675331783e+002 1.978939234806e+002 1.979201187259e+002 1.979461070604e+002 1.979718871681e+002 1.979974660897e+002 1.980228181698e+002 1.980479513443e+002 1.980728602429e+002 1.980975449840e+002 1.981219949542e+002 1.981462079783e+002 1.981701808235e+002 1.981939069113e+002 1.982173868278e+002 1.982406108917e+002 1.982635837704e+002 1.982862911159e+002 1.983087378888e+002 1.983309158107e+002 1.983528212440e+002 1.983744548237e+002 1.983958068819e+002 1.984168826239e+002 1.984376709668e+002 1.984581723915e+002 1.984783781940e+002 1.984982944583e+002 1.985179099713e+002 1.985372276673e+002 1.985562397283e+002 1.985749446866e+002 1.985933417945e+002 1.986114263021e+002 1.986291955935e+002 1.986466476522e+002 1.986637798045e+002 1.986805900733e+002 1.986970761143e+002 1.987132330553e+002 1.987290569972e+002 1.987445530026e+002 1.987597108185e+002 1.987745324874e+002 1.987890163232e+002 1.988031613937e+002 1.988169621617e+002 1.988304149569e+002 1.988435254075e+002 1.988562832041e+002 1.988686909904e+002 1.988807475545e+002 1.988924524430e+002 1.989038003808e+002 1.989147880260e+002 1.989254216433e+002 1.989356909441e+002 1.989455988881e+002 1.989551454868e+002 1.989643314952e+002 1.989731495321e+002 1.989815975628e+002 1.989896829889e+002 1.989973953247e+002 1.990047379505e+002 1.990117108578e+002 1.990183155281e+002 1.990245473480e+002 1.990304024726e+002 1.990358832334e+002 1.990409883983e+002 1.990457144817e+002 1.990500686683e+002 1.990540501412e+002 1.990576482578e+002 1.990608765451e+002 1.990637317311e+002 1.990661889941e+002 1.990682735323e+002 1.990699807478e+002 1.990713299838e+002 1.990722416527e+002 1.990728284544e+002 1.990730160271e+002 1.990729971172e+002 1.990730381847e+002 1.990730299444e+002 1.990730259059e+002 1.990730184954e+002 1.990730136325e+002 1.990730170042e+002 1.990730173931e+002 1.990730081187e+002 1.990730337488e+002 1.990729947875e+002 1.990730144068e+002 1.990728271320e+002 1.990722406024e+002 1.990713290747e+002 1.990699798508e+002 1.990682728398e+002 1.990661895043e+002 1.990637334056e+002 1.990608784567e+002 1.990576500468e+002 1.990540518050e+002 1.990500690700e+002 1.990457151819e+002 1.990409881752e+002 1.990358820214e+002 1.990304015739e+002 1.990245455482e+002 1.990183132846e+002 1.990117156644e+002 1.990047418927e+002 1.989973963250e+002 1.989896827457e+002 1.989815987409e+002 1.989731464091e+002 1.989643309686e+002 1.989551481502e+002 1.989456024801e+002 1.989356909202e+002 1.989254205273e+002 1.989147859329e+002 1.989037991512e+002 1.988924507804e+002 1.988807481917e+002 1.988686921955e+002 1.988562807910e+002 1.988435238438e+002 1.988304134201e+002 1.988169617377e+002 1.988031604411e+002 1.987890172349e+002 1.987745335024e+002 1.987597082293e+002 1.987445515237e+002 1.987290559862e+002 1.987132332135e+002 1.986970758882e+002 1.986805881024e+002 1.986637806852e+002 1.986466482729e+002 1.986291958940e+002 1.986114263099e+002 1.985933427338e+002 1.985749479341e+002 1.985562423692e+002 1.985372274938e+002 1.985179130584e+002 1.984982946364e+002 1.984783788646e+002 1.984581696216e+002 1.984376720466e+002 1.984168823575e+002 1.983958099797e+002 1.983744560712e+002 1.983528222079e+002 1.983309140507e+002 1.983087360571e+002 1.982862921577e+002 1.982635827451e+002 1.982406129101e+002 1.982173857498e+002 1.981939068212e+002 1.981701788403e+002 1.981462067990e+002 1.981219952161e+002 1.980975453276e+002 1.980728625429e+002 1.980479504458e+002 1.980228147933e+002 1.979974587813e+002 1.979718875102e+002 1.979461065673e+002 1.979201174636e+002 1.978939255410e+002 1.978675346158e+002 1.978409508464e+002 1.978141776555e+002 1.977872210930e+002 1.977600855541e+002 1.977327719595e+002 1.977052935634e+002 1.976776494754e+002 1.976498434329e+002 1.976218842872e+002 1.975937709905e+002 1.975655130492e+002 1.975371167461e+002 1.975085837082e+002 1.974799202973e+002 1.974511322882e+002 1.974222234601e+002 1.973931983327e+002 1.973640643116e+002 1.973348235263e+002 1.973054821367e+002 1.972760447571e+002 1.972465157395e+002 1.972168974030e+002 1.971871919870e+002 1.971574013594e+002 1.971275202378e+002 1.970975421060e+002 1.970674516114e+002 1.970372230974e+002 1.970068128920e+002 1.969761583828e+002 1.969451729531e+002 1.969137445901e+002 1.968817510640e+002 1.968490698725e+002 1.968156852665e+002 1.967816971017e+002 1.967476441880e+002 1.967146928164e+002 1.966851023790e+002 1.966626093419e+002 1.966542198555e+002 1.966696992970e+002 1.967236072373e+002 1.968332807347e+002 1.970308954455e+002 1.973491495953e+002 1.978213139946e+002 1.985027965529e+002 1.994920112522e+002 2.000000000000e+002 2.000000000000e+002 2.000000000000e+002 2.000000000000e+002 2.000000000000e+002 2.000000000000e+002 2.000000000000e+002 2.000000000000e+002 2.000000000000e+002 2.000000000000e+002 2.000000000000e+002 2.000000000000e+002 2.000000000000e+002 1.990644806821e+002 1.967643233034e+002 1.990386438687e+002 1.989937313823e+002 1.989299522303e+002 1.988491431301e+002 1.987512178718e+002 1.969303501394e+002 1.986379546180e+002 1.971444942676e+002 1.973513153970e+002 1.975548707227e+002 1.978519973527e+002 1.980354054705e+002 1.982056714147e+002 1.983636661137e+002 1.985081318901e+002 1.967371031383e+002 1.977052972966e+002 1.985749406169e+002 1.985740880795e+002 1.984376714700e+002 1.982862915006e+002 1.981219957585e+002 1.979461080250e+002 1.990192868576e+002 1.989656919765e+002 1.988937950916e+002 1.979461040635e+002 1.981176268458e+002 1.982881126672e+002 1.984339613923e+002 1.988047935314e+002 1.986970697727e+002 1.970362764710e+002 1.972431452038e+002 1.974544020982e+002 1.986978329056e+002 1.988032954624e+002 1.988925618599e+002 1.989643220014e+002 1.990183061302e+002 1.974508429516e+002 1.972462467904e+002 1.970373865213e+002 1.990536523723e+002 1.990534133661e+002 1.976458558899e+002 1.977673632445e+002 1.966653681586e+002 1.968209489473e+002 1.990700369524e+002 1.973609975477e+002 1.990700842416e+002 1.973619533890e+002 1.966646256082e+002 1.968472659035e+002 1.976154923510e+002 1.977910793115e+002 1.990384873429e+002 1.985081344473e+002 1.989935789841e+002 1.983636728814e+002 1.982056780647e+002 1.980354106113e+002 1.978599087339e+002 1.986377861183e+002 1.989307758457e+002 1.988510765781e+002 1.987535184379e+002 1.971421980255e+002 1.973469045622e+002 1.986381236153e+002 1.987521665794e+002 1.988499414905e+002 1.989305949486e+002 1.980353663047e+002 1.982056353822e+002 1.983636310764e+002 1.989935790439e+002 1.985084883085e+002 1.990384810927e+002 1.975513350724e+002 1.973494638217e+002 1.971425173759e+002 1.969297558532e+002 1.990634051670e+002 1.990635828959e+002 1.967195243579e+002 1.969471005805e+002 1.978729310842e+002 1.975295483648e+002 1.990714593126e+002 1.978972249354e+002 1.967404906219e+002 1.967728704406e+002 1.967348498913e+002 1.976894683757e+002 1.976314333880e+002 1.977789505540e+002 1.966618895092e+002 1.968260049680e+002 1.977059191436e+002 1.990565537206e+002 1.989027019586e+002 1.989554755598e+002 1.988156249918e+002 1.990119450974e+002 1.987116515574e+002 1.984547319038e+002 1.981421430623e+002 1.979675591715e+002 1.983065451705e+002 1.970666281183e+002 1.974250611294e+002 1.972198790745e+002 1.985580604727e+002 1.977052950722e+002 1.990720649592e+002 1.983715090991e+002 1.990720649320e+002 1.983453115877e+002 1.984654662337e+002 1.983167384287e+002 1.981548530269e+002 1.979811068497e+002 1.986745678305e+002 1.985486674266e+002 1.985998743321e+002 1.987838345478e+002 1.974902454931e+002 1.988764403491e+002 1.972866520916e+002 1.989517400385e+002 1.970783272275e+002 1.990092327347e+002 1.990089671642e+002 1.990271123224e+002 1.989513714742e+002 1.989763921599e+002 1.988753212080e+002 1.989073580511e+002 1.987824875294e+002 1.988213138761e+002 1.970828603926e+002 1.987182446746e+002 1.986745205841e+002 1.972895059973e+002 1.972075277438e+002 1.979812389223e+002 1.981558300492e+002 1.983185190462e+002 1.980895637559e+002 1.982560627163e+002 1.984645613150e+002 1.984100750529e+002 1.974201696344e+002 1.985999223886e+002 1.985522550632e+002 1.990266933036e+002 1.969958851133e+002 1.989749150238e+002 1.972106553448e+002 1.989061387705e+002 1.974161164429e+002 1.988198189870e+002 1.979064793977e+002 1.980862079676e+002 1.982530379510e+002 1.984068364755e+002 1.987165888905e+002 1.967226796646e+002 1.990482842436e+002 1.990480905647e+002 1.977962346431e+002 1.976094998518e+002 1.968643099199e+002 1.985983093329e+002 1.982567363288e+002 1.984110476262e+002 1.980907057063e+002 1.979070122668e+002 1.969982458924e+002 1.972841774427e+002 1.990263240871e+002 1.974885092681e+002 1.989754906723e+002 1.988774733961e+002 1.986760156523e+002 1.987850768592e+002 1.970070037925e+002 1.990577798492e+002 1.990577791627e+002 1.977484051780e+002 1.966543140523e+002 1.990486947807e+002 1.986130440488e+002 1.986625059557e+002 1.987734109357e+002 1.975091045207e+002 1.988677546703e+002 1.973077574227e+002 1.980710100774e+002 1.982388851971e+002 1.983942243578e+002 1.990305101910e+002 1.969759738572e+002 1.989822291719e+002 1.968037626020e+002 1.978961533810e+002 1.990681858697e+002 1.990679526943e+002 1.990451564763e+002 1.979234485365e+002 1.974763739281e+002 1.978173400198e+002 1.975895959760e+002 1.970226311138e+002 1.968874779574e+002 1.966667371347e+002 1.966811607896e+002 1.968881697929e+002 1.984774281831e+002 1.983302181139e+002 1.981694235390e+002 1.979966529409e+002 1.989461053629e+002 1.970961441829e+002 1.990051253301e+002 1.985364388335e+002 1.987286323517e+002 1.989452107606e+002 1.988309840382e+002 1.990044588732e+002 1.989152488384e+002 1.984798202601e+002 1.983301567427e+002 1.981711734475e+002 1.979985208771e+002 1.970991269019e+002 1.973940564830e+002 1.971861116310e+002 1.971860151327e+002 1.989152416025e+002 1.973919934651e+002 1.988309668972e+002 1.987297075285e+002 1.985364243189e+002 1.990721616863e+002 1.990722178435e+002 1.984590935390e+002 1.983600764460e+002 1.990686125247e+002 1.970794293325e+002 1.990608500026e+002 1.990613774903e+002 1.968699135610e+002 1.990667358773e+002 1.967042449967e+002 1.971177730521e+002 1.975823870473e+002 1.978255332596e+002 1.969058455911e+002 1.966761734864e+002 1.975631983549e+002 1.967886684308e+002 1.967830795852e+002 1.978442392687e+002 1.967019172557e+002 1.976339662489e+002 1.977454275111e+002 1.966823063003e+002 1.972987183472e+002 1.986686471839e+002 1.987779385026e+002 1.988715318087e+002 1.989806656960e+002 1.990298134568e+002 1.986062795116e+002 1.978994718942e+002 1.980779336056e+002 1.982453351341e+002 1.984001458063e+002 1.976636807943e+002 1.967887950837e+002 1.977511072785e+002 1.976561063916e+002 1.990463019917e+002 1.990660260605e+002 1.969845753762e+002 1.974956351412e+002 1.969192200590e+002 1.972502793941e+002 1.990696214393e+002 1.966939448022e+002 1.984973569252e+002 1.983517899074e+002 1.981927904341e+002 1.980216221739e+002 1.986462221122e+002 1.986296153216e+002 1.985191245970e+002 1.987604036844e+002 1.988568627748e+002 1.975357780571e+002 1.989361535637e+002 1.973334474183e+002 1.989977374181e+002 1.971261264538e+002 1.990357513027e+002 1.989974744439e+002 1.989363164589e+002 1.988572502934e+002 1.987608644292e+002 1.971259959548e+002 1.973326038039e+002 1.980225438156e+002 1.981926040915e+002 1.983516184029e+002 1.990356257880e+002 1.969466861178e+002 1.978700541584e+002 1.990388690072e+002 1.990622941401e+002 1.990622966517e+002 1.969615397508e+002 1.968797977039e+002 1.966907854121e+002 1.977352901871e+002 1.990218135637e+002 1.989692643474e+002 1.988859962664e+002 1.987953505050e+002 1.986865067149e+002 1.970207052847e+002 1.972629618717e+002 1.974671306153e+002 1.984268335808e+002 1.981092368311e+002 1.979327585895e+002 1.982717168673e+002 1.985868134440e+002 1.990514758613e+002 1.990704954053e+002 1.990704965570e+002 1.989922587120e+002 1.988519800526e+002 1.987545924310e+002 1.973448202868e+002 1.980396801790e+002 1.982096656666e+002 1.983673452364e+002 1.975085910017e+002 1.976759026099e+002 1.986412103192e+002 1.986347902682e+002 1.978592989266e+002 1.990725977744e+002 1.989476126006e+002 1.975158861027e+002 1.978879129423e+002 1.986964622925e+002 1.988026345366e+002 1.988920162850e+002 1.990183085428e+002 1.989643451279e+002 1.974522028134e+002 1.972476177500e+002 1.970372436083e+002 1.982862902054e+002 1.984376705641e+002 1.979461042505e+002 1.981219934778e+002 1.990183046392e+002 1.989643253161e+002 1.981219883590e+002 1.982866778559e+002 1.988924421244e+002 1.984378556143e+002 1.988031523020e+002 1.986972213098e+002 1.972466520320e+002 1.985756307234e+002 1.985749397854e+002 1.967683153540e+002 1.975901161989e+002 1.967571567228e+002 1.979094381899e+002 1.977122196076e+002 1.990587402453e+002 1.990584138252e+002 1.977865682606e+002 1.978018837342e+002 1.977248984965e+002 1.986540825059e+002 1.984897320142e+002 1.985262869524e+002 1.986215625602e+002 1.983837052748e+002 1.982274423113e+002 1.980587309006e+002 1.987379023050e+002 1.971705259036e+002 1.973767033304e+002 1.989867599546e+002 1.989208713265e+002 1.988379053599e+002 1.989862367730e+002 1.971702793352e+002 1.989208744283e+002 1.973766554230e+002 1.980587328516e+002 1.982274443184e+002 1.983807343602e+002 1.988379074811e+002 1.987379033700e+002 1.976313751300e+002 1.966599703603e+002 1.990707235633e+002 1.975882366251e+002 1.985088519334e+002 1.985074166606e+002 1.971418611367e+002 1.971414828442e+002 1.989309676536e+002 1.989308815443e+002 1.990675345463e+002 1.967004330590e+002 1.968462866169e+002 1.969486715920e+002 1.967321087343e+002 1.990726334445e+002 1.990396086751e+002 1.990726560680e+002 1.989717734057e+002 1.966691205581e+002 1.990428994328e+002 1.990429900405e+002 1.987517414792e+002 1.988495835326e+002 1.973502994316e+002 1.983627217427e+002 1.980343054417e+002 1.982046438417e+002 1.989936565068e+002 1.968416087693e+002 1.968479376311e+002 1.966757348846e+002 1.978307539706e+002 1.975765724395e+002 1.966844414009e+002 1.969017708141e+002 1.970447342048e+002 1.976279292978e+002 1.968717830540e+002 1.990531564059e+002 1.990531569594e+002 1.976071313799e+002 1.978106676791e+002 1.990480922259e+002 1.975299659601e+002 1.978155131367e+002 1.977841091224e+002 1.989758156088e+002 1.969962387449e+002 1.990266368293e+002 1.980712593283e+002 1.982386978647e+002 1.983944372016e+002 1.986141184281e+002 1.972877288603e+002 1.988760054024e+002 1.974910147865e+002 1.987833116278e+002 1.986612185905e+002 1.990383450140e+002 1.967840336741e+002 1.977488134449e+002 1.976831920671e+002 1.975505133201e+002 1.966677419206e+002 1.990726914554e+002 1.991088763020e+002 1.990726928321e+002 1.991839275150e+002 1.969389680985e+002 1.969313493054e+002 1.977010549284e+002 1.976288020491e+002 1.990677258576e+002 1.974408587134e+002 1.979535969952e+002 1.968449525086e+002 1.978344023120e+002 1.967115677333e+002 1.987177437048e+002 1.988208015040e+002 1.989069424383e+002 1.974139977117e+002 1.972085048629e+002 1.989160486913e+002 1.990039818254e+002 1.988319702729e+002 1.989445932802e+002 1.987308983855e+002 1.971838835753e+002 1.973898094608e+002 1.971011870591e+002 1.980001417381e+002 1.983335039214e+002 1.981726416592e+002 1.984807386501e+002 1.990087940448e+002 1.989511416951e+002 1.970802769427e+002 1.985508618275e+002 1.979791584410e+002 1.981530248045e+002 1.983150458013e+002 1.984639212527e+002 1.985352466632e+002 1.985749426919e+002 1.984376597933e+002 1.981219864902e+002 1.982862891712e+002 1.979461005403e+002 1.990183114855e+002 1.989643266933e+002 1.988926098007e+002 1.986970726560e+002 1.988033547468e+002 1.970378455007e+002 1.972461733808e+002 1.974511131755e+002 1.975738816887e+002 1.968920950953e+002 1.990673861730e+002 1.969340833963e+002 1.985329731276e+002 1.984828096801e+002 1.983354360484e+002 1.981750749007e+002 1.980026882042e+002 1.989430683225e+002 1.990029082974e+002 1.971054687669e+002 1.989171560407e+002 1.988330687199e+002 1.987320505042e+002 1.971807189067e+002 1.973876289390e+002 1.976959693802e+002 1.990536552709e+002 1.976737688040e+002 1.990564434005e+002 1.985724711519e+002 1.985765422437e+002 1.984421124092e+002 1.982910797865e+002 1.981272353851e+002 1.979516851076e+002 1.990174546790e+002 1.989631267966e+002 1.988903144180e+002 1.988005741174e+002 1.986992326158e+002 1.972520847836e+002 1.986956645663e+002 1.981252219062e+002 1.982832873814e+002 1.984404074338e+002 1.988022436012e+002 1.988916928299e+002 1.974530031587e+002 1.989644367979e+002 1.972484481339e+002 1.990183877248e+002 1.970369032001e+002 1.967380564748e+002 1.989567383817e+002 1.970624877508e+002 1.990128615757e+002 1.981408997792e+002 1.984536819590e+002 1.983050108066e+002 1.979662343943e+002 1.972239863418e+002 1.989011213388e+002 1.974290965066e+002 1.988137011901e+002 1.987090963409e+002 1.985610684967e+002 1.967899891075e+002 1.990726635062e+002 1.990528476967e+002 1.990603882501e+002 1.990656467523e+002 1.990656442463e+002 1.976675542162e+002 1.977426942306e+002 1.968347298463e+002 1.970420991344e+002 1.990453966914e+002 1.968018713304e+002 1.990531346386e+002 1.990530258572e+002 1.969216526386e+002 1.986606003635e+002 1.987720142602e+002 1.975125055432e+002 1.988665881718e+002 1.973105640476e+002 1.983959575098e+002 1.982389082405e+002 1.980730391035e+002 1.986138269907e+002 1.990313207693e+002 1.969686823113e+002 1.989830121342e+002 1.975494662563e+002 1.978569865353e+002 1.976490132333e+002 1.966694220626e+002 1.967048943204e+002 1.990716321403e+002 1.980414296649e+002 1.990716317332e+002 1.979891055687e+002 1.979553453722e+002 1.974416681921e+002 1.978875942138e+002 1.966821554207e+002 1.990334845132e+002 1.975776253973e+002 1.976129490513e+002 1.977714523951e+002 1.976444465843e+002 1.968248848829e+002 1.966623510643e+002 1.967453230533e+002 1.974841081505e+002 1.966614821183e+002 1.967808224092e+002 1.976616592543e+002 1.967219984687e+002 1.966649240209e+002 1.977210238086e+002 1.975969567863e+002 1.977771917062e+002 1.976247720900e+002 1.990635711795e+002 1.970584644828e+002 1.969884223152e+002 1.985890900225e+002 1.986205694046e+002 1.990333271826e+002 1.989860290438e+002 1.990237318539e+002 1.989715915575e+002 1.988668896196e+002 1.987723724002e+002 1.973099202508e+002 1.986844663675e+002 1.986550474106e+002 1.979215068315e+002 1.978840471657e+002 1.980991513934e+002 1.980605114303e+002 1.982291026738e+002 1.982651067420e+002 1.984181731003e+002 1.983851687361e+002 1.973292292232e+002 1.990699580487e+002 1.990699314676e+002 1.990715158052e+002 1.990715165251e+002 1.976961592061e+002 1.990710886172e+002 1.984681872330e+002 1.983197229841e+002 1.981580766241e+002 1.979845436900e+002 1.985468419426e+002 1.986023143265e+002 1.986723292490e+002 1.987819055068e+002 1.974940931747e+002 1.988748372214e+002 1.972905964703e+002 1.989504754100e+002 1.970823336967e+002 1.990083132649e+002 1.990082997608e+002 1.989504558250e+002 1.990275193686e+002 1.988747624878e+002 1.987818160444e+0