<?xml version="1.0"?>
<VTKFile type="UnstructuredGrid" version="0.1" byte_order="LittleEndian">
  <UnstructuredGrid>
    <Piece NumberOfPoints="2604" NumberOfCells="4910">
      <Points>
        <DataArray type="Float64" NumberOfComponents="3" format="ascii">
          0.000000000000e+000 0.000000000000e+000 0.000000000000e+000
          2.000000000000e+002 0.000000000000e+000 0.000000000000e+000
          2.000000000000e+002 2.000000000000e+001 0.000000000000e+000
          0.000000000000e+000 2.000000000000e+001 0.000000000000e+000
          1.492537313427e+000 0.000000000000e+000 0.000000000000e+000
          2.985074626854e+000 0.000000000000e+000 0.000000000000e+000
          4.477611940281e+000 0.000000000000e+000 0.000000000000e+000
          5.970149253708e+000 0.000000000000e+000 0.000000000000e+000
          7.462686567135e+000 0.000000000000e+000 0.000000000000e+000
          8.955223880561e+000 0.000000000000e+000 0.000000000000e+000
          1.044776119399e+001 0.000000000000e+000 0.000000000000e+000
          1.194029850741e+001 0.000000000000e+000 0.000000000000e+000
          1.343283582084e+001 0.000000000000e+000 0.000000000000e+000
          1.492537313427e+001 0.000000000000e+000 0.000000000000e+000
          1.641791044770e+001 0.000000000000e+000 0.000000000000e+000
          1.791044776112e+001 0.000000000000e+000 0.000000000000e+000
          1.940298507455e+001 0.000000000000e+000 0.000000000000e+000
          2.089552238798e+001 0.000000000000e+000 0.000000000000e+000
          2.238805970141e+001 0.000000000000e+000 0.000000000000e+000
          2.388059701484e+001 0.000000000000e+000 0.000000000000e+000
          2.537313432826e+001 0.000000000000e+000 0.000000000000e+000
          2.686567164169e+001 0.000000000000e+000 0.000000000000e+000
          2.835820895511e+001 0.000000000000e+000 0.000000000000e+000
          2.985074626854e+001 0.000000000000e+000 0.000000000000e+000
          3.134328358196e+001 0.000000000000e+000 0.000000000000e+000
          3.283582089539e+001 0.000000000000e+000 0.000000000000e+000
          3.432835820881e+001 0.000000000000e+000 0.000000000000e+000
          3.582089552224e+001 0.000000000000e+000 0.000000000000e+000
          3.731343283566e+001 0.000000000000e+000 0.000000000000e+000
          3.880597014909e+001 0.000000000000e+000 0.000000000000e+000
          4.029850746251e+001 0.000000000000e+000 0.000000000000e+000
          4.179104477594e+001 0.000000000000e+000 0.000000000000e+000
          4.328358208936e+001 0.000000000000e+000 0.000000000000e+000
          4.477611940279e+001 0.000000000000e+000 0.000000000000e+000
          4.626865671621e+001 0.000000000000e+000 0.000000000000e+000
          4.776119402964e+001 0.000000000000e+000 0.000000000000e+000
          4.925373134306e+001 0.000000000000e+000 0.000000000000e+000
          5.074626865649e+001 0.000000000000e+000 0.000000000000e+000
          5.223880596991e+001 0.000000000000e+000 0.000000000000e+000
          5.373134328334e+001 0.000000000000e+000 0.000000000000e+000
          5.522388059676e+001 0.000000000000e+000 0.000000000000e+000
          5.671641791019e+001 0.000000000000e+000 0.000000000000e+000
          5.820895522361e+001 0.000000000000e+000 0.000000000000e+000
          5.970149253704e+001 0.000000000000e+000 0.000000000000e+000
          6.119402985046e+001 0.000000000000e+000 0.000000000000e+000
          6.268656716389e+001 0.000000000000e+000 0.000000000000e+000
          6.417910447732e+001 0.000000000000e+000 0.000000000000e+000
          6.567164179075e+001 0.000000000000e+000 0.000000000000e+000
          6.716417910418e+001 0.000000000000e+000 0.000000000000e+000
          6.865671641761e+001 0.000000000000e+000 0.000000000000e+000
          7.014925373104e+001 0.000000000000e+000 0.000000000000e+000
          7.164179104447e+001 0.000000000000e+000 0.000000000000e+000
          7.313432835790e+001 0.000000000000e+000 0.000000000000e+000
          7.462686567133e+001 0.000000000000e+000 0.000000000000e+000
          7.611940298476e+001 0.000000000000e+000 0.000000000000e+000
          7.761194029819e+001 0.000000000000e+000 0.000000000000e+000
          7.910447761162e+001 0.000000000000e+000 0.000000000000e+000
          8.059701492505e+001 0.000000000000e+000 0.000000000000e+000
          8.208955223848e+001 0.000000000000e+000 0.000000000000e+000
          8.358208955191e+001 0.000000000000e+000 0.000000000000e+000
          8.507462686534e+001 0.000000000000e+000 0.000000000000e+000
          8.656716417877e+001 0.000000000000e+000 0.000000000000e+000
          8.805970149220e+001 0.000000000000e+000 0.000000000000e+000
          8.955223880563e+001 0.000000000000e+000 0.000000000000e+000
          9.104477611907e+001 0.000000000000e+000 0.000000000000e+000
          9.253731343250e+001 0.000000000000e+000 0.000000000000e+000
          9.402985074593e+001 0.000000000000e+000 0.000000000000e+000
          9.552238805936e+001 0.000000000000e+000 0.000000000000e+000
          9.701492537279e+001 0.000000000000e+000 0.000000000000e+000
          9.850746268622e+001 0.000000000000e+000 0.000000000000e+000
          9.999999999965e+001 0.000000000000e+000 0.000000000000e+000
          1.014925373131e+002 0.000000000000e+000 0.000000000000e+000
          1.029850746265e+002 0.000000000000e+000 0.000000000000e+000
          1.044776119399e+002 0.000000000000e+000 0.000000000000e+000
          1.059701492534e+002 0.000000000000e+000 0.000000000000e+000
          1.074626865668e+002 0.000000000000e+000 0.000000000000e+000
          1.089552238802e+002 0.000000000000e+000 0.000000000000e+000
          1.104477611937e+002 0.000000000000e+000 0.000000000000e+000
          1.119402985071e+002 0.000000000000e+000 0.000000000000e+000
          1.134328358205e+002 0.000000000000e+000 0.000000000000e+000
          1.149253731340e+002 0.000000000000e+000 0.000000000000e+000
          1.164179104474e+002 0.000000000000e+000 0.000000000000e+000
          1.179104477608e+002 0.000000000000e+000 0.000000000000e+000
          1.194029850742e+002 0.000000000000e+000 0.000000000000e+000
          1.208955223877e+002 0.000000000000e+000 0.000000000000e+000
          1.223880597011e+002 0.000000000000e+000 0.000000000000e+000
          1.238805970145e+002 0.000000000000e+000 0.000000000000e+000
          1.253731343280e+002 0.000000000000e+000 0.000000000000e+000
          1.268656716414e+002 0.000000000000e+000 0.000000000000e+000
          1.283582089548e+002 0.000000000000e+000 0.000000000000e+000
          1.298507462683e+002 0.000000000000e+000 0.000000000000e+000
          1.313432835817e+002 0.000000000000e+000 0.000000000000e+000
          1.328358208952e+002 0.000000000000e+000 0.000000000000e+000
          1.343283582086e+002 0.000000000000e+000 0.000000000000e+000
          1.358208955220e+002 0.000000000000e+000 0.000000000000e+000
          1.373134328355e+002 0.000000000000e+000 0.000000000000e+000
          1.388059701489e+002 0.000000000000e+000 0.000000000000e+000
          1.402985074624e+002 0.000000000000e+000 0.000000000000e+000
          1.417910447758e+002 0.000000000000e+000 0.000000000000e+000
          1.432835820892e+002 0.000000000000e+000 0.000000000000e+000
          1.447761194027e+002 0.000000000000e+000 0.000000000000e+000
          1.462686567161e+002 0.000000000000e+000 0.000000000000e+000
          1.477611940296e+002 0.000000000000e+000 0.000000000000e+000
          1.492537313430e+002 0.000000000000e+000 0.000000000000e+000
          1.507462686564e+002 0.000000000000e+000 0.000000000000e+000
          1.522388059699e+002 0.000000000000e+000 0.000000000000e+000
          1.537313432833e+002 0.000000000000e+000 0.000000000000e+000
          1.552238805968e+002 0.000000000000e+000 0.000000000000e+000
          1.567164179102e+002 0.000000000000e+000 0.000000000000e+000
          1.582089552237e+002 0.000000000000e+000 0.000000000000e+000
          1.597014925371e+002 0.000000000000e+000 0.000000000000e+000
          1.611940298505e+002 0.000000000000e+000 0.000000000000e+000
          1.626865671640e+002 0.000000000000e+000 0.000000000000e+000
          1.641791044774e+002 0.000000000000e+000 0.000000000000e+000
          1.656716417909e+002 0.000000000000e+000 0.000000000000e+000
          1.671641791043e+002 0.000000000000e+000 0.000000000000e+000
          1.686567164177e+002 0.000000000000e+000 0.000000000000e+000
          1.701492537312e+002 0.000000000000e+000 0.000000000000e+000
          1.716417910446e+002 0.000000000000e+000 0.000000000000e+000
          1.731343283581e+002 0.000000000000e+000 0.000000000000e+000
          1.746268656715e+002 0.000000000000e+000 0.000000000000e+000
          1.761194029849e+002 0.000000000000e+000 0.000000000000e+000
          1.776119402984e+002 0.000000000000e+000 0.000000000000e+000
          1.791044776118e+002 0.000000000000e+000 0.000000000000e+000
          1.805970149253e+002 0.000000000000e+000 0.000000000000e+000
          1.820895522387e+002 0.000000000000e+000 0.000000000000e+000
          1.835820895521e+002 0.000000000000e+000 0.000000000000e+000
          1.850746268656e+002 0.000000000000e+000 0.000000000000e+000
          1.865671641790e+002 0.000000000000e+000 0.000000000000e+000
          1.880597014925e+002 0.000000000000e+000 0.000000000000e+000
          1.895522388059e+002 0.000000000000e+000 0.000000000000e+000
          1.910447761194e+002 0.000000000000e+000 0.000000000000e+000
          1.925373134328e+002 0.000000000000e+000 0.000000000000e+000
          1.940298507462e+002 0.000000000000e+000 0.000000000000e+000
          1.955223880597e+002 0.000000000000e+000 0.000000000000e+000
          1.970149253731e+002 0.000000000000e+000 0.000000000000e+000
          1.985074626866e+002 0.000000000000e+000 0.000000000000e+000
          2.000000000000e+002 1.428571428570e+000 0.000000000000e+000
          2.000000000000e+002 2.857142857140e+000 0.000000000000e+000
[...]
      <PointData Scalars="MEAN_PRESSURE">
        <DataArray type="Float64" Name="MEAN_PRESSURE" format="ascii">
          2.000000000000e+002 1.995115763256e+002 1.995115747513e+002 2.000000000000e+002 1.994044102733e+002 1.982681967910e+002 1.975413951380e+002 1.970731161144e+002 1.967966154766e+002 1.966542993870e+002 1.965928907158e+002 1.965831382981e+002 1.966013859164e+002 1.966338965212e+002 1.966724224135e+002 1.967129296514e+002 1.967534883076e+002 1.967933992844e+002 1.968325800911e+002 1.968711527966e+002 1.969093027077e+002 1.969471512285e+002 1.969848299633e+002 1.970224005212e+002 1.970598936480e+002 1.970973207427e+002 1.971346869572e+002 1.971719864396e+002 1.972092081736e+002 1.972463442799e+002 1.972833843971e+002 1.973203212222e+002 1.973571413687e+002 1.973938377942e+002 1.974304011151e+002 1.974668209454e+002 1.975030920762e+002 1.975392018647e+002 1.975751453425e+002 1.976109164958e+002 1.976465021041e+002 1.976818917102e+002 1.977170867247e+002 1.977520740862e+002 1.977868498432e+002 1.978214050042e+002 1.978557371512e+002 1.978898262798e+002 1.979236842948e+002 1.979572895415e+002 1.979906389364e+002 1.980237292592e+002 1.980565595909e+002 1.980891028716e+002 1.981213747092e+002 1.981533629395e+002 1.981850651493e+002 1.982164651097e+002 1.982475620809e+002 1.982783673792e+002 1.983088451303e+002 1.983390081162e+002 1.983688499145e+002 1.983983719933e+002 1.984275606290e+002 1.984564141594e+002 1.984849294688e+002 1.985130988396e+002 1.985409246122e+002 1.985683948749e+002 1.985955176805e+002 1.986222748831e+002 1.986486749579e+002 1.986747082698e+002 1.987003716466e+002 1.987256676925e+002 1.987505851642e+002 1.987751328319e+002 1.987992977460e+002 1.988230824142e+002 1.988464772263e+002 1.988694921064e+002 1.988921142739e+002 1.989143494963e+002 1.989361895845e+002 1.989576346695e+002 1.989786857475e+002 1.989993387469e+002 1.990195923443e+002 1.990394460104e+002 1.990588983740e+002 1.990779489754e+002 1.990965968908e+002 1.991148381106e+002 1.991326698522e+002 1.991501003479e+002 1.991671190463e+002 1.991837304276e+002 1.991999344221e+002 1.992157318450e+002 1.992311180096e+002 1.992460904766e+002 1.992606578398e+002 1.992748097753e+002 1.992885512583e+002 1.993018826958e+002 1.993148053393e+002 1.993273148402e+002 1.993394090838e+002 1.993510969897e+002 1.993623684080e+002 1.993732283521e+002 1.993836784111e+002 1.993937209607e+002 1.994033491688e+002 1.994125622097e+002 1.994213697879e+002 1.994297615248e+002 1.994377424925e+002 1.994453139251e+002 1.994524786402e+002 1.994592326712e+002 1.994655728716e+002 1.994715028438e+002 1.994770221987e+002 1.994821280354e+002 1.994868290212e+002 1.994911250172e+002 1.994950051812e+002 1.994984848076e+002 1.995015609123e+002 1.995042072090e+002 1.995064513793e+002 1.995082888186e+002 1.995097406562e+002 1.995107214659e+002 1.995113527147e+002 1.995115544811e+002 1.995115341398e+002 1.995115783153e+002 1.995115694519e+002 1.995115651088e+002 1.995115571371e+002 1.995115519063e+002 1.995115555336e+002 1.995115559523e+002 1.995115459763e+002 1.995115735473e+002 1.995115316380e+002 1.995115527427e+002 1.995113512969e+002 1.995107203404e+002 1.995097396822e+002 1.995082878574e+002 1.995064506381e+002 1.995042077649e+002 1.995015627254e+002 1.994984868793e+002 1.994950071239e+002 1.994911268291e+002 1.994868294663e+002 1.994821288073e+002 1.994770219646e+002 1.994715015305e+002 1.994655718974e+002 1.994592307056e+002 1.994524761815e+002 1.994453192408e+002 1.994377468639e+002 1.994297626385e+002 1.994213695270e+002 1.994125635492e+002 1.994033456900e+002 1.993937204025e+002 1.993836814452e+002 1.993732324443e+002 1.993623683895e+002 1.993510957277e+002 1.993394067085e+002 1.993273134566e+002 1.993148034457e+002 1.993018834574e+002 1.992885526908e+002 1.992748069668e+002 1.992606560200e+002 1.992460886822e+002 1.992311175243e+002 1.992157307124e+002 1.991999355035e+002 1.991837316398e+002 1.991671158938e+002 1.991500985355e+002 1.991326686042e+002 1.991148382860e+002 1.990965965853e+002 1.990779465043e+002 1.990588994477e+002 1.990394467628e+002 1.990195927018e+002 1.989993387431e+002 1.989786869397e+002 1.989576388256e+002 1.989361929787e+002 1.989143492666e+002 1.988921182700e+002 1.988694923226e+002 1.988464781066e+002 1.988230787744e+002 1.987992992022e+002 1.987751325092e+002 1.987505893395e+002 1.987256693997e+002 1.987003729809e+002 1.986747059212e+002 1.986486725009e+002 1.986222763509e+002 1.985955163185e+002 1.985683977128e+002 1.985409231621e+002 1.985130987602e+002 1.984849267402e+002 1.984564125502e+002 1.984275610517e+002 1.983983725395e+002 1.983688532471e+002 1.983390068873e+002 1.983088403408e+002 1.982783569088e+002 1.982475626777e+002 1.982164645223e+002 1.981850634722e+002 1.981533661788e+002 1.981213771030e+002 1.980891042458e+002 1.980565516460e+002 1.980237272944e+002 1.979906367954e+002 1.979572806363e+002 1.979236777819e+002 1.978898261349e+002 1.978557305733e+002 1.978214037374e+002 1.977868433445e+002 1.977520632092e+002 1.977170723257e+002 1.976818726562e+002 1.976464734471e+002 1.976108831294e+002 1.975751071548e+002 1.975391521469e+002 1.975030293340e+002 1.974667419544e+002 1.974302996184e+002 1.973937099256e+002 1.973569806160e+002 1.973201173528e+002 1.972831270612e+002 1.972460188675e+002 1.972087957147e+002 1.971714645671e+002 1.971340290913e+002 1.970964904456e+002 1.970588423261e+002 1.970210713166e+002 1.969831484019e+002 1.969450194230e+002 1.969065953555e+002 1.968677344304e+002 1.968282677228e+002 1.967879447029e+002 1.967466350062e+002 1.967043370376e+002 1.966616898283e+002 1.966204725789e+002 1.965851458030e+002 1.965638831843e+002 1.965710903283e+002 1.966269674424e+002 1.967711494911e+002 1.970502086581e+002 1.975162830456e+002 1.982514308104e+002 1.993842694275e+002 2.000000000000e+002 2.000000000000e+002 2.000000000000e+002 2.000000000000e+002 2.000000000000e+002 2.000000000000e+002 2.000000000000e+002 2.000000000000e+002 2.000000000000e+002 2.000000000000e+002 2.000000000000e+002 2.000000000000e+002 2.000000000000e+002 1.995023675536e+002 1.965914515796e+002 1.994744877945e+002 1.994257756339e+002 1.993560713770e+002 1.992668919405e+002 1.991575866316e+002 1.969650374451e+002 1.990295606571e+002 1.972299211732e+002 1.974872078628e+002 1.977389522622e+002 1.981025205870e+002 1.983239563602e+002 1.985270459289e+002 1.987130575314e+002 1.988808418430e+002 1.967330601843e+002 1.979236825968e+002 1.989576294804e+002 1.989566540015e+002 1.987992984358e+002 1.986222754201e+002 1.984275617836e+002 1.982164665955e+002 1.994535319144e+002 1.993952074750e+002 1.993162858338e+002 1.982164607730e+002 1.984223485071e+002 1.986244192516e+002 1.987949880254e+002 1.992175521338e+002 1.990965890107e+002 1.970952484935e+002 1.973527726760e+002 1.976149244451e+002 1.990974521005e+002 1.992158808357e+002 1.993149256502e+002 1.993937102803e+002 1.994524683017e+002 1.976105236971e+002 1.973566415554e+002 1.970966758378e+002 1.994906959151e+002 1.994904380785e+002 1.978508359079e+002 1.979995159515e+002 1.966239014211e+002 1.968344545554e+002 1.995083493093e+002 1.970625856011e+002 1.995084001885e+002 1.970577882096e+002 1.966063502286e+002 1.968654566795e+002 1.978135501118e+002 1.980284291335e+002 1.994743188011e+002 1.988808451878e+002 1.994256099920e+002 1.987130666675e+002 1.985270551961e+002 1.983239637669e+002 1.981121240440e+002 1.990293690606e+002 1.993569750359e+002 1.992690365200e+002 1.991601697232e+002 1.972270456848e+002 1.974817313364e+002 1.990297528722e+002 1.991586517631e+002 1.992677774924e+002 1.993567767832e+002 1.983239084028e+002 1.985270025690e+002 1.987130157153e+002 1.994256100288e+002 1.988812525218e+002 1.994743119753e+002 1.977345978321e+002 1.974849125420e+002 1.972274714638e+002 1.969643749858e+002 1.995012091258e+002 1.995014005763e+002 1.965678907032e+002 1.969853593597e+002 1.981279214053e+002 1.977077382795e+002 1.995098797901e+002 1.975958535655e+002 1.967371745831e+002 1.966040082485e+002 1.967305687330e+002 1.979043033444e+002 1.978331315513e+002 1.980136457923e+002 1.966082706321e+002 1.968403661986e+002 1.979244434628e+002 1.994938250896e+002 1.993261044960e+002 1.993840388721e+002 1.992296280169e+002 1.994455678274e+002 1.991130521296e+002 1.988190924236e+002 1.984515721788e+002 1.982423438652e+002 1.986460957353e+002 1.971329710352e+002 1.975786166222e+002 1.973238183883e+002 1.989382763473e+002 1.979236796044e+002 1.995105313809e+002 1.981080485300e+002 1.995105313564e+002 1.980769104389e+002 1.988315311918e+002 1.986580702620e+002 1.984667015871e+002 1.982586696392e+002 1.990711270674e+002 1.989274959178e+002 1.989861493633e+002 1.991941397232e+002 1.976592280426e+002 1.992971218673e+002 1.974068959680e+002 1.993799517905e+002 1.971475505944e+002 1.994426237130e+002 1.994423356622e+002 1.994620106377e+002 1.993795489806e+002 1.994068862779e+002 1.992958851288e+002 1.993312319547e+002 1.991926337400e+002 1.992359630238e+002 1.971531350218e+002 1.991204882185e+002 1.990710733935e+002 1.974104338809e+002 1.973084289261e+002 1.982588324078e+002 1.984678657382e+002 1.986601614834e+002 1.983888307435e+002 1.985866422598e+002 1.988304833184e+002 1.987672075369e+002 1.975725600574e+002 1.989862040231e+002 1.989316152607e+002 1.994615569814e+002 1.970453471326e+002 1.994052751807e+002 1.973123440377e+002 1.993298898689e+002 1.975675439362e+002 1.992342991516e+002 1.981685649937e+002 1.983848204345e+002 1.985830736233e+002 1.987634382998e+002 1.991186218619e+002 1.967145791396e+002 1.994849027731e+002 1.994846936610e+002 1.980347079934e+002 1.978061835645e+002 1.968858103633e+002 1.989843615808e+002 1.985874366570e+002 1.987683391759e+002 1.983901953078e+002 1.981692087499e+002 1.970482018328e+002 1.974038137241e+002 1.994611570149e+002 1.976570833147e+002 1.994059031233e+002 1.992982639978e+002 1.990727674635e+002 1.991955294503e+002 1.970589824402e+002 1.994951470679e+002 1.994951463185e+002 1.979763772814e+002 1.965855459101e+002 1.994853459852e+002 1.990011841162e+002 1.990574525076e+002 1.991824744582e+002 1.976825151447e+002 1.992875150598e+002 1.974331233104e+002 1.983666352348e+002 1.985663550986e+002 1.987487402252e+002 1.994656895087e+002 1.970208060901e+002 1.994132506269e+002 1.968139802476e+002 1.981560626412e+002 1.995063570375e+002 1.995061060203e+002 1.994815254442e+002 1.981890899964e+002 1.976420887099e+002 1.980603976284e+002 1.977817061272e+002 1.967621889319e+002 1.969133918119e+002 1.965664614901e+002 1.966504027547e+002 1.969141087669e+002 1.988453781022e+002 1.986738899624e+002 1.984840288620e+002 1.982773870870e+002 1.993737833616e+002 1.971697057688e+002 1.994381634677e+002 1.989134442723e+002 1.991321935104e+002 1.993728039164e+002 1.992467242728e+002 1.994374397233e+002 1.993399163587e+002 1.988481449832e+002 1.986738185927e+002 1.984861078964e+002 1.982796338749e+002 1.971733952702e+002 1.975402138220e+002 1.972817620496e+002 1.972816532154e+002 1.993399080634e+002 1.975376571248e+002 1.992467039946e+002 1.991334017612e+002 1.989134255661e+002 1.995106354466e+002 1.995106958581e+002 1.982038267812e+002 1.980907231549e+002 1.995068162550e+002 1.968129064220e+002 1.994984562346e+002 1.994990245910e+002 1.966499089575e+002 1.995047960366e+002 1.965743058406e+002 1.968512656852e+002 1.977728367650e+002 1.980703665516e+002 1.969353742435e+002 1.965857076851e+002 1.977492116887e+002 1.967962548782e+002 1.967894740077e+002 1.980930992694e+002 1.966854092757e+002 1.978362421313e+002 1.979727416443e+002 1.966572675672e+002 1.974218869115e+002 1.990644193953e+002 1.991875441231e+002 1.992916946623e+002 1.994115467796e+002 1.994649354215e+002 1.989934663146e+002 1.981600820522e+002 1.983749219447e+002 1.985739767100e+002 1.987556429788e+002 1.978727015383e+002 1.967963317932e+002 1.979796776097e+002 1.978634148664e+002 1.994827625868e+002 1.995040317517e+002 1.970313344359e+002 1.976658836565e+002 1.966920598883e+002 1.969565077400e+002 1.995079021421e+002 1.966742515956e+002 1.988684084006e+002 1.986991629836e+002 1.985117728793e+002 1.983074061430e+002 1.990389615597e+002 1.990200694635e+002 1.988935124867e+002 1.991678952515e+002 1.992754514141e+002 1.977154210298e+002 1.993628753380e+002 1.974650321826e+002 1.994301332718e+002 1.972070581166e+002 1.994713600865e+002 1.994298474547e+002 1.993630541522e+002 1.992758807680e+002 1.991684116759e+002 1.972068535108e+002 1.974639767330e+002 1.983085138417e+002 1.985115520641e+002 1.986989624805e+002 1.994712243073e+002 1.969849930084e+002 1.981244323678e+002 1.994747313389e+002 1.995000121983e+002 1.995000149155e+002 1.970030107508e+002 1.969041713962e+002 1.965615479578e+002 1.979603573286e+002 1.994562704611e+002 1.993991083147e+002 1.993076796503e+002 1.992070116010e+002 1.990846452622e+002 1.970759853484e+002 1.973774336944e+002 1.976306647385e+002 1.987867057591e+002 1.984123361363e+002 1.982003429070e+002 1.986051076190e+002 1.989712202191e+002 1.994883477000e+002 1.995088426470e+002 1.995088438831e+002 1.994241733915e+002 1.992700386370e+002 1.991613754757e+002 1.974791457658e+002 1.983290866687e+002 1.985317796984e+002 1.987173595227e+002 1.972001621297e+002 1.978876838992e+002 1.990332646585e+002 1.990259609211e+002 1.981113844609e+002 1.995111045698e+002 1.987580143306e+002 1.976908835884e+002 1.981460829087e+002 1.990959024954e+002 1.992151433856e+002 1.993143237719e+002 1.994524709552e+002 1.993937356051e+002 1.976122063927e+002 1.973583507639e+002 1.970965154803e+002 1.986222736629e+002 1.987992972371e+002 1.982164611390e+002 1.984275585814e+002 1.994524666586e+002 1.993937140309e+002 1.984275512923e+002 1.986227285674e+002 1.993147934383e+002 1.987995104843e+002 1.992157210033e+002 1.990967600089e+002 1.973571330993e+002 1.989584199479e+002 1.989576283980e+002 1.967718421493e+002 1.977823455615e+002 1.967578145544e+002 1.981721428509e+002 1.979321515044e+002 1.994961823436e+002 1.994958304685e+002 1.980229306124e+002 1.980415860956e+002 1.979476575296e+002 1.990478922693e+002 1.988596028960e+002 1.989017618971e+002 1.990108968307e+002 1.987364685691e+002 1.985528246969e+002 1.983519286033e+002 1.991426230821e+002 1.972623371801e+002 1.975186985514e+002 1.994181865563e+002 1.993460974021e+002 1.992544160275e+002 1.994176169661e+002 1.972620601634e+002 1.993461009324e+002 1.975186445905e+002 1.983519314497e+002 1.985528275290e+002 1.987329999166e+002 1.992544185139e+002 1.991426243957e+002 1.973277698186e+002 1.965720644603e+002 1.995090881404e+002 1.972822361136e+002 1.988816726742e+002 1.988800172565e+002 1.972266320399e+002 1.972261756884e+002 1.993571857627e+002 1.993570913483e+002 1.995056558762e+002 1.966843598029e+002 1.966482433863e+002 1.969873221681e+002 1.967271309962e+002 1.995111429397e+002 1.988603424394e+002 1.995111672798e+002 1.987794815506e+002 1.966269397833e+002 1.994790871809e+002 1.994791850633e+002 1.991581746639e+002 1.992673805366e+002 1.974859483309e+002 1.987119542409e+002 1.983226369466e+002 1.985258288290e+002 1.994256942605e+002 1.968588402559e+002 1.968662129874e+002 1.965730268757e+002 1.980767118500e+002 1.977656795227e+002 1.965794095651e+002 1.969305881844e+002 1.971057278796e+002 1.978288274155e+002 1.968946696462e+002 1.994901609561e+002 1.994901615646e+002 1.978032721998e+002 1.980522792507e+002 1.994846955449e+002 1.977082534493e+002 1.980581746675e+002 1.980199338002e+002 1.994062574232e+002 1.970457759683e+002 1.994614957153e+002 1.983669332778e+002 1.985661338714e+002 1.987489880862e+002 1.990024093877e+002 1.974082331502e+002 1.992966409977e+002 1.976601783571e+002 1.991935547853e+002 1.990559923402e+002 1.994741647359e+002 1.967905770899e+002 1.979768761526e+002 1.978966157340e+002 1.977335839703e+002 1.966282880890e+002 1.995112053472e+002 1.989419641941e+002 1.995112068236e+002 1.990323364847e+002 1.966991048272e+002 1.969662837150e+002 1.979184891886e+002 1.978298999297e+002 1.995058618190e+002 1.975981699217e+002 1.982255042316e+002 1.968627327784e+002 1.980811451226e+002 1.966983852991e+002 1.991199229198e+002 1.992353925700e+002 1.993307744929e+002 1.975649188496e+002 1.973096635304e+002 1.993407951529e+002 1.994369209801e+002 1.992478194287e+002 1.993721267646e+002 1.991347426529e+002 1.972789821813e+002 1.975349471804e+002 1.971759555083e+002 1.982815847519e+002 1.986777418828e+002 1.984878533284e+002 1.988492072256e+002 1.994421474256e+002 1.993792969418e+002 1.971499692036e+002 1.989300144337e+002 1.982563215400e+002 1.984645251584e+002 1.986560817060e+002 1.988297406424e+002 1.989120709493e+002 1.989576321294e+002 1.987992829574e+002 1.984275486656e+002 1.986222722070e+002 1.982164556851e+002 1.994524742148e+002 1.993937155919e+002 1.993149783894e+002 1.990965925813e+002 1.992159468483e+002 1.970972049612e+002 1.973565433775e+002 1.976108578246e+002 1.977623647059e+002 1.969188392335e+002 1.995054961343e+002 1.966972200213e+002 1.989094554182e+002 1.988516018353e+002 1.986800067902e+002 1.984907432370e+002 1.982846473327e+002 1.993704557157e+002 1.994357543824e+002 1.971813112705e+002 1.993420123347e+002 1.992490402667e+002 1.991360385126e+002 1.972750481965e+002 1.975322454409e+002 1.979122634095e+002 1.994906990514e+002 1.978850677837e+002 1.994937060626e+002 1.989548002923e+002 1.989594642656e+002 1.988044529111e+002 1.986279095780e+002 1.984338081683e+002 1.982231965408e+002 1.994515450905e+002 1.993924044803e+002 1.993124460050e+002 1.992128439526e+002 1.990990326309e+002 1.973638945864e+002 1.990950012627e+002 1.984314084065e+002 1.986187378545e+002 1.988024746201e+002 1.992147068677e+002 1.993139667203e+002 1.976131956927e+002 1.993938355826e+002 1.973593822895e+002 1.994525567230e+002 1.970960876819e+002 1.967341966866e+002 1.993854205131e+002 1.971278354228e+002 1.994465625801e+002 1.984500913092e+002 1.988178752054e+002 1.986442944011e+002 1.982407464134e+002 1.973289337915e+002 1.993243622472e+002 1.975836129323e+002 1.992274833721e+002 1.991101695961e+002 1.989417282903e+002 1.966080410456e+002 1.995111752800e+002 1.988786909086e+002 1.994979585884e+002 1.995036233076e+002 1.995036206003e+002 1.978774504179e+002 1.979694024857e+002 1.968507688764e+002 1.971024636735e+002 1.994817847632e+002 1.966078775530e+002 1.994901374003e+002 1.994900200505e+002 1.969544307680e+002 1.990552909273e+002 1.991809104082e+002 1.976867129223e+002 1.992862240993e+002 1.974366094044e+002 1.987507594414e+002 1.985663811731e+002 1.983690625704e+002 1.990020764208e+002 1.994665667377e+002 1.970118240468e+002 1.994141038702e+002 1.977322951615e+002 1.981085792724e+002 1.978547117232e+002 1.966203386488e+002 1.965816988970e+002 1.995100657361e+002 1.977479102081e+002 1.995100652945e+002 1.976883677353e+002 1.982276152033e+002 1.975991716805e+002 1.981456972074e+002 1.966522499176e+002 1.994689080311e+002 1.972732182060e+002 1.978104218913e+002 1.980045035092e+002 1.978491073808e+002 1.968391209639e+002 1.966181960116e+002 1.967434472430e+002 1.976516456378e+002 1.966168620351e+002 1.967866833557e+002 1.978702219850e+002 1.965701206005e+002 1.965889570121e+002 1.979429190473e+002 1.977907596548e+002 1.980115031067e+002 1.978249510502e+002 1.995013879442e+002 1.967993881788e+002 1.970360401503e+002 1.989738250941e+002 1.990097653042e+002 1.994687378951e+002 1.994173907655e+002 1.994583493227e+002 1.994016491338e+002 1.992865586847e+002 1.991813128366e+002 1.974358062976e+002 1.990823374261e+002 1.990489882656e+002 1.981867419723e+002 1.981413974044e+002 1.984002897670e+002 1.983540622643e+002 1.985547891160e+002 1.985973121106e+002 1.987766328287e+002 1.987381769343e+002 1.970277123120e+002 1.995082644042e+002 1.995082357814e+002 1.995099405788e+002 1.995099413490e+002 1.973857241951e+002 1.995094809507e+002 1.988346834445e+002 1.986615756486e+002 1.984705379530e+002 1.982628103813e+002 1.989253991760e+002 1.989889378350e+002 1.990685918752e+002 1.991919826880e+002 1.976639816529e+002 1.992953500215e+002 1.974118005078e+002 1.993785680608e+002 1.971525369759e+002 1.994416256331e+002 1.994416110363e+002 1.993785467593e+002 1.994624515597e+002 1.992952673415e+002 1.991918825015e+0