<?xml version="1.0"?>
<VTKFile type="UnstructuredGrid" version="0.1" byte_order="LittleEndian">
  <UnstructuredGrid>
    <Piece NumberOfPoints="2604" NumberOfCells="4910">
      <Points>
        <DataArray type="Float64" NumberOfComponents="3" format="ascii">
          0.000000000000e+000 0.000000000000e+000 0.000000000000e+000
          2.000000000000e+002 0.000000000000e+000 0.000000000000e+000
          2.000000000000e+002 2.000000000000e+001 0.000000000000e+000
          0.000000000000e+000 2.000000000000e+001 0.000000000000e+000
          1.492537313427e+000 0.000000000000e+000 0.000000000000e+000
          2.985074626854e+000 0.000000000000e+000 0.000000000000e+000
          4.477611940281e+000 0.000000000000e+000 0.000000000000e+000
          5.970149253708e+000 0.000000000000e+000 0.000000000000e+000
          7.462686567135e+000 0.000000000000e+000 0.000000000000e+000
          8.955223880561e+000 0.000000000000e+000 0.000000000000e+000
          1.044776119399e+001 0.000000000000e+000 0.000000000000e+000
          1.194029850741e+001 0.000000000000e+000 0.000000000000e+000
          1.343283582084e+001 0.000000000000e+000 0.000000000000e+000
          1.492537313427e+001 0.000000000000e+000 0.000000000000e+000
          1.641791044770e+001 0.000000000000e+000 0.000000000000e+000
          1.791044776112e+001 0.000000000000e+000 0.000000000000e+000
          1.940298507455e+001 0.000000000000e+000 0.000000000000e+000
          2.089552238798e+001 0.000000000000e+000 0.000000000000e+000
          2.238805970141e+001 0.000000000000e+000 0.000000000000e+000
          2.388059701484e+001 0.000000000000e+000 0.000000000000e+000
          2.537313432826e+001 0.000000000000e+000 0.000000000000e+000
          2.686567164169e+001 0.000000000000e+000 0.000000000000e+000
          2.835820895511e+001 0.000000000000e+000 0.000000000000e+000
          2.985074626854e+001 0.000000000000e+000 0.000000000000e+000
          3.134328358196e+001 0.000000000000e+000 0.000000000000e+000
          3.283582089539e+001 0.000000000000e+000 0.000000000000e+000
          3.432835820881e+001 0.000000000000e+000 0.000000000000e+000
          3.582089552224e+001 0.000000000000e+000 0.000000000000e+000
          3.731343283566e+001 0.000000000000e+000 0.000000000000e+000
          3.880597014909e+001 0.000000000000e+000 0.000000000000e+000
          4.029850746251e+001 0.000000000000e+000 0.000000000000e+000
          4.179104477594e+001 0.000000000000e+000 0.000000000000e+000
          4.328358208936e+001 0.000000000000e+000 0.000000000000e+000
          4.477611940279e+001 0.000000000000e+000 0.000000000000e+000
          4.626865671621e+001 0.000000000000e+000 0.000000000000e+000
          4.776119402964e+001 0.000000000000e+000 0.000000000000e+000
          4.925373134306e+001 0.000000000000e+000 0.000000000000e+000
          5.074626865649e+001 0.000000000000e+000 0.000000000000e+000
          5.223880596991e+001 0.000000000000e+000 0.000000000000e+000
          5.373134328334e+001 0.000000000000e+000 0.000000000000e+000
          5.522388059676e+001 0.000000000000e+000 0.000000000000e+000
          5.671641791019e+001 0.000000000000e+000 0.000000000000e+000
          5.820895522361e+001 0.000000000000e+000 0.000000000000e+000
          5.970149253704e+001 0.000000000000e+000 0.000000000000e+000
          6.119402985046e+001 0.000000000000e+000 0.000000000000e+000
          6.268656716389e+001 0.000000000000e+000 0.000000000000e+000
          6.417910447732e+001 0.000000000000e+000 0.000000000000e+000
          6.567164179075e+001 0.000000000000e+000 0.000000000000e+000
          6.716417910418e+001 0.000000000000e+000 0.000000000000e+000
          6.865671641761e+001 0.000000000000e+000 0.000000000000e+000
          7.014925373104e+001 0.000000000000e+000 0.000000000000e+000
          7.164179104447e+001 0.000000000000e+000 0.000000000000e+000
          7.313432835790e+001 0.000000000000e+000 0.000000000000e+000
          7.462686567133e+001 0.000000000000e+000 0.000000000000e+000
          7.611940298476e+001 0.000000000000e+000 0.000000000000e+000
          7.761194029819e+001 0.000000000000e+000 0.000000000000e+000
          7.910447761162e+001 0.000000000000e+000 0.000000000000e+000
          8.059701492505e+001 0.000000000000e+000 0.000000000000e+000
          8.208955223848e+001 0.000000000000e+000 0.000000000000e+000
          8.358208955191e+001 0.000000000000e+000 0.000000000000e+000
          8.507462686534e+001 0.000000000000e+000 0.000000000000e+000
          8.656716417877e+001 0.000000000000e+000 0.000000000000e+000
          8.805970149220e+001 0.000000000000e+000 0.000000000000e+000
          8.955223880563e+001 0.000000000000e+000 0.000000000000e+000
          9.104477611907e+001 0.000000000000e+000 0.000000000000e+000
          9.253731343250e+001 0.000000000000e+000 0.000000000000e+000
          9.402985074593e+001 0.000000000000e+000 0.000000000000e+000
          9.552238805936e+001 0.000000000000e+000 0.000000000000e+000
          9.701492537279e+001 0.000000000000e+000 0.000000000000e+000
          9.850746268622e+001 0.000000000000e+000 0.000000000000e+000
          9.999999999965e+001 0.000000000000e+000 0.000000000000e+000
          1.014925373131e+002 0.000000000000e+000 0.000000000000e+000
          1.029850746265e+002 0.000000000000e+000 0.000000000000e+000
          1.044776119399e+002 0.000000000000e+000 0.000000000000e+000
          1.059701492534e+002 0.000000000000e+000 0.000000000000e+000
          1.074626865668e+002 0.000000000000e+000 0.000000000000e+000
          1.089552238802e+002 0.000000000000e+000 0.000000000000e+000
          1.104477611937e+002 0.000000000000e+000 0.000000000000e+000
          1.119402985071e+002 0.000000000000e+000 0.000000000000e+000
          1.134328358205e+002 0.000000000000e+000 0.000000000000e+000
          1.149253731340e+002 0.000000000000e+000 0.000000000000e+000
          1.164179104474e+002 0.000000000000e+000 0.000000000000e+000
          1.179104477608e+002 0.000000000000e+000 0.000000000000e+000
          1.194029850742e+002 0.000000000000e+000 0.000000000000e+000
          1.208955223877e+002 0.000000000000e+000 0.000000000000e+000
          1.223880597011e+002 0.000000000000e+000 0.000000000000e+000
          1.238805970145e+002 0.000000000000e+000 0.000000000000e+000
          1.253731343280e+002 0.000000000000e+000 0.000000000000e+000
          1.268656716414e+002 0.000000000000e+000 0.000000000000e+000
          1.283582089548e+002 0.000000000000e+000 0.000000000000e+000
          1.298507462683e+002 0.000000000000e+000 0.000000000000e+000
          1.313432835817e+002 0.000000000000e+000 0.000000000000e+000
          1.328358208952e+002 0.000000000000e+000 0.000000000000e+000
          1.343283582086e+002 0.000000000000e+000 0.000000000000e+000
          1.358208955220e+002 0.000000000000e+000 0.000000000000e+000
          1.373134328355e+002 0.000000000000e+000 0.000000000000e+000
          1.388059701489e+002 0.000000000000e+000 0.000000000000e+000
          1.402985074624e+002 0.000000000000e+000 0.000000000000e+000
          1.417910447758e+002 0.000000000000e+000 0.000000000000e+000
          1.432835820892e+002 0.000000000000e+000 0.000000000000e+000
          1.447761194027e+002 0.000000000000e+000 0.000000000000e+000
          1.462686567161e+002 0.000000000000e+000 0.000000000000e+000
          1.477611940296e+002 0.000000000000e+000 0.000000000000e+000
          1.492537313430e+002 0.000000000000e+000 0.000000000000e+000
          1.507462686564e+002 0.000000000000e+000 0.000000000000e+000
          1.522388059699e+002 0.000000000000e+000 0.000000000000e+000
          1.537313432833e+002 0.000000000000e+000 0.000000000000e+000
          1.552238805968e+002 0.000000000000e+000 0.000000000000e+000
          1.567164179102e+002 0.000000000000e+000 0.000000000000e+000
          1.582089552237e+002 0.000000000000e+000 0.000000000000e+000
          1.597014925371e+002 0.000000000000e+000 0.000000000000e+000
          1.611940298505e+002 0.000000000000e+000 0.000000000000e+000
          1.626865671640e+002 0.000000000000e+000 0.000000000000e+000
          1.641791044774e+002 0.000000000000e+000 0.000000000000e+000
          1.656716417909e+002 0.000000000000e+000 0.000000000000e+000
          1.671641791043e+002 0.000000000000e+000 0.000000000000e+000
          1.686567164177e+002 0.000000000000e+000 0.000000000000e+000
          1.701492537312e+002 0.000000000000e+000 0.000000000000e+000
          1.716417910446e+002 0.000000000000e+000 0.000000000000e+000
          1.731343283581e+002 0.000000000000e+000 0.000000000000e+000
          1.746268656715e+002 0.000000000000e+000 0.000000000000e+000
          1.761194029849e+002 0.000000000000e+000 0.000000000000e+000
          1.776119402984e+002 0.000000000000e+000 0.000000000000e+000
          1.791044776118e+002 0.000000000000e+000 0.000000000000e+000
          1.805970149253e+002 0.000000000000e+000 0.000000000000e+000
          1.820895522387e+002 0.000000000000e+000 0.000000000000e+000
          1.835820895521e+002 0.000000000000e+000 0.000000000000e+000
          1.850746268656e+002 0.000000000000e+000 0.000000000000e+000
          1.865671641790e+002 0.000000000000e+000 0.000000000000e+000
          1.880597014925e+002 0.000000000000e+000 0.000000000000e+000
          1.895522388059e+002 0.000000000000e+000 0.000000000000e+000
          1.910447761194e+002 0.000000000000e+000 0.000000000000e+000
          1.925373134328e+002 0.000000000000e+000 0.000000000000e+000
          1.940298507462e+002 0.000000000000e+000 0.000000000000e+000
          1.955223880597e+002 0.000000000000e+000 0.000000000000e+000
          1.970149253731e+002 0.000000000000e+000 0.000000000000e+000
          1.985074626866e+002 0.000000000000e+000 0.000000000000e+000
          2.000000000000e+002 1.428571428570e+000 0.000000000000e+000
          2.000000000000e+002 2.857142857140e+000 0.000000000000e+000
[...]
      <PointData Scalars="MEAN_PRESSURE">
        <DataArray type="Float64" Name="MEAN_PRESSURE" format="ascii">
          2.000000000000e+002 1.997867928179e+002 1.997867914818e+002 2.000000000000e+002 1.992857854602e+002 1.980072339243e+002 1.972457122571e+002 1.968055502929e+002 1.965857559921e+002 1.965032865506e+002 1.964923624692e+002 1.965193073958e+002 1.965619866170e+002 1.966098935724e+002 1.966584985713e+002 1.967063470542e+002 1.967532894253e+002 1.967995409996e+002 1.968453871046e+002 1.968910244237e+002 1.969365704873e+002 1.969820576111e+002 1.970275107498e+002 1.970729196840e+002 1.971182654811e+002 1.971635259536e+002 1.972086864224e+002 1.972537260716e+002 1.972986225260e+002 1.973433608690e+002 1.973879239404e+002 1.974323009751e+002 1.974764704830e+002 1.975204219026e+002 1.975641408449e+002 1.976076111553e+002 1.976508255554e+002 1.976937639963e+002 1.977364196747e+002 1.977787839656e+002 1.978208361000e+002 1.978625603311e+002 1.979039606101e+002 1.979450169266e+002 1.979857244644e+002 1.980260701822e+002 1.980660518867e+002 1.981056389650e+002 1.981448526231e+002 1.981836599220e+002 1.982220580262e+002 1.982600439706e+002 1.982976184059e+002 1.983347410349e+002 1.983714388011e+002 1.984076950297e+002 1.984435084220e+002 1.984788565761e+002 1.985137411274e+002 1.985481818877e+002 1.985821273262e+002 1.986155998158e+002 1.986485926789e+002 1.986811110637e+002 1.987131378078e+002 1.987446736829e+002 1.987757173985e+002 1.988062611891e+002 1.988363118287e+002 1.988658557868e+002 1.988949080228e+002 1.989234466279e+002 1.989514871466e+002 1.989790199192e+002 1.990060444999e+002 1.990325682995e+002 1.990585799919e+002 1.990840953289e+002 1.991091010595e+002 1.991336046164e+002 1.991575975252e+002 1.991810969478e+002 1.992040905149e+002 1.992265898935e+002 1.992485889326e+002 1.992700922375e+002 1.992911053440e+002 1.993116275813e+002 1.993316617146e+002 1.993512115362e+002 1.993702797675e+002 1.993888702896e+002 1.994069863988e+002 1.994246278555e+002 1.994417958877e+002 1.994585044291e+002 1.994747457883e+002 1.994905294419e+002 1.995058596672e+002 1.995207416564e+002 1.995351745760e+002 1.995491600691e+002 1.995627116496e+002 1.995758224238e+002 1.995885018083e+002 1.996007543007e+002 1.996125851743e+002 1.996239939247e+002 1.996349823109e+002 1.996455631662e+002 1.996557300293e+002 1.996654915432e+002 1.996748528158e+002 1.996838195875e+002 1.996923886466e+002 1.997005625090e+002 1.997083535758e+002 1.997157550960e+002 1.997227747778e+002 1.997294165898e+002 1.997356858052e+002 1.997415813578e+002 1.997471028640e+002 1.997522559533e+002 1.997570424701e+002 1.997614619019e+002 1.997655238418e+002 1.997692298834e+002 1.997725721543e+002 1.997755654577e+002 1.997782084780e+002 1.997804796809e+002 1.997824040796e+002 1.997839785210e+002 1.997852218251e+002 1.997860613283e+002 1.997866015037e+002 1.997867741282e+002 1.997867567239e+002 1.997867945200e+002 1.997867869377e+002 1.997867832242e+002 1.997867764029e+002 1.997867719277e+002 1.997867750324e+002 1.997867753911e+002 1.997867668568e+002 1.997867904489e+002 1.997867545933e+002 1.997867726516e+002 1.997866003014e+002 1.997860603755e+002 1.997852210009e+002 1.997839777067e+002 1.997824034539e+002 1.997804801731e+002 1.997782100570e+002 1.997755672658e+002 1.997725738587e+002 1.997692314855e+002 1.997655242525e+002 1.997614626058e+002 1.997570422836e+002 1.997522548082e+002 1.997471020136e+002 1.997415796081e+002 1.997356835968e+002 1.997294214755e+002 1.997227788222e+002 1.997157561371e+002 1.997083533551e+002 1.997005638242e+002 1.996923853931e+002 1.996838191304e+002 1.996748558080e+002 1.996654955793e+002 1.996557300312e+002 1.996455619432e+002 1.996349799899e+002 1.996239925996e+002 1.996125833088e+002 1.996007551332e+002 1.995885033573e+002 1.995758195201e+002 1.995627097686e+002 1.995491582011e+002 1.995351740930e+002 1.995207404316e+002 1.995058608309e+002 1.994905307653e+002 1.994747422130e+002 1.994585023480e+002 1.994417944349e+002 1.994246280168e+002 1.994069859856e+002 1.993888673281e+002 1.993702809888e+002 1.993512123820e+002 1.993316621013e+002 1.993116275474e+002 1.992911068060e+002 1.992700974084e+002 1.992485931875e+002 1.992265895912e+002 1.992040955867e+002 1.991810971914e+002 1.991575986708e+002 1.991335998786e+002 1.991091030387e+002 1.990840949704e+002 1.990585856614e+002 1.990325706741e+002 1.990060463883e+002 1.989790167820e+002 1.989514838359e+002 1.989234487607e+002 1.988949062162e+002 1.988658598998e+002 1.988363098614e+002 1.988062611693e+002 1.987757135594e+002 1.987446714416e+002 1.987131385251e+002 1.986811119742e+002 1.986485977092e+002 1.986155980690e+002 1.985821202235e+002 1.985481661714e+002 1.985137421747e+002 1.984788558575e+002 1.984435060721e+002 1.984077003533e+002 1.983714429213e+002 1.983347436987e+002 1.982976065560e+002 1.982600416957e+002 1.982220556877e+002 1.981836470875e+002 1.981448440014e+002 1.981056410948e+002 1.980660442683e+002 1.980260720690e+002 1.979857188810e+002 1.979450055276e+002 1.979039451399e+002 1.978625393654e+002 1.978208019839e+002 1.977787455878e+002 1.977363779306e+002 1.976937087772e+002 1.976507558835e+002 1.976075236648e+002 1.975640274031e+002 1.975202792065e+002 1.974762916183e+002 1.974320739257e+002 1.973876374766e+002 1.973429983287e+002 1.972981625759e+002 1.972531441040e+002 1.972079537788e+002 1.971626023162e+002 1.971170959704e+002 1.970714414748e+002 1.970256425947e+002 1.969796946192e+002 1.969335774658e+002 1.968872431047e+002 1.968406070570e+002 1.967934866567e+002 1.967456550521e+002 1.966967242312e+002 1.966463899791e+002 1.965947507627e+002 1.965432757864e+002 1.964966590444e+002 1.964659795643e+002 1.964707445884e+002 1.965541793111e+002 1.967766888792e+002 1.972142331910e+002 1.979853909050e+002 1.992611066949e+002 2.000000000000e+002 2.000000000000e+002 2.000000000000e+002 2.000000000000e+002 2.000000000000e+002 2.000000000000e+002 2.000000000000e+002 2.000000000000e+002 2.000000000000e+002 2.000000000000e+002 2.000000000000e+002 2.000000000000e+002 2.000000000000e+002 1.997789009555e+002 1.964685064825e+002 1.997548453587e+002 1.997122414211e+002 1.996500539734e+002 1.995684928441e+002 1.994656561318e+002 1.970037123647e+002 1.993414865997e+002 1.973235988676e+002 1.976319122080e+002 1.979296287112e+002 1.983500142111e+002 1.985989081192e+002 1.988213354684e+002 1.990193578397e+002 1.991926433086e+002 1.967298412477e+002 1.981448505730e+002 1.992700858244e+002 1.992691122114e+002 1.991091020211e+002 1.989234473959e+002 1.987131395221e+002 1.984788589466e+002 1.997366064683e+002 1.996851449677e+002 1.996139363502e+002 1.984788499687e+002 1.987074249776e+002 1.989257289432e+002 1.991046469509e+002 1.995224506835e+002 1.994069771073e+002 1.971610413248e+002 1.974712349388e+002 1.977835224127e+002 1.994078153163e+002 1.995208803096e+002 1.996126941940e+002 1.996838093576e+002 1.997356764282e+002 1.977783177953e+002 1.974758806265e+002 1.971628080078e+002 1.997688599143e+002 1.997686376012e+002 1.980603474324e+002 1.982322590732e+002 1.965986210458e+002 1.968478305734e+002 1.997840303510e+002 1.967899607844e+002 1.997840739082e+002 1.967773935906e+002 1.965717521856e+002 1.968843209103e+002 1.980169134280e+002 1.982654319510e+002 1.997546993371e+002 1.991926476299e+002 1.997120957433e+002 1.990193702763e+002 1.988213487336e+002 1.985989192637e+002 1.983609323293e+002 1.993412981504e+002 1.996508683211e+002 1.995704792975e+002 1.994681214492e+002 1.973201215522e+002 1.976253856404e+002 1.993416757805e+002 1.994666725043e+002 1.995693131256e+002 1.996506901797e+002 1.985988526507e+002 1.988212870977e+002 1.990193120176e+002 1.997120957094e+002 1.991930598673e+002 1.997546932595e+002 1.979245238925e+002 1.976291795307e+002 1.973206589058e+002 1.970029770971e+002 1.997779063240e+002 1.997780707510e+002 1.964638414716e+002 1.970281690551e+002 1.983788680253e+002 1.978929745684e+002 1.997853409067e+002 1.972951940922e+002 1.967344937688e+002 1.964847770249e+002 1.967270912482e+002 1.981224181232e+002 1.980397388638e+002 1.982484786306e+002 1.965761458046e+002 1.968547206273e+002 1.981457298741e+002 1.997715562154e+002 1.996228912620e+002 1.996751737670e+002 1.995337787147e+002 1.997296382979e+002 1.994228995181e+002 1.991294974823e+002 1.987393862621e+002 1.985078929781e+002 1.989487468996e+002 1.972066426189e+002 1.977405317473e+002 1.974365067078e+002 1.992506797183e+002 1.981448462681e+002 1.997858986495e+002 1.978336367800e+002 1.997858986396e+002 1.977968313132e+002 1.991422781734e+002 1.989614328602e+002 1.987558833674e+002 1.985261691891e+002 1.993822199111e+002 1.992398436166e+002 1.992985293036e+002 1.995003831726e+002 1.978358481324e+002 1.995963829852e+002 1.975360507902e+002 1.996715170238e+002 1.972242757540e+002 1.997270581158e+002 1.997268061578e+002 1.997440017485e+002 1.996711576439e+002 1.996955287382e+002 1.995952480499e+002 1.996275555019e+002 1.994989607335e+002 1.995397041704e+002 1.972309715194e+002 1.994300736607e+002 1.993821672273e+002 1.975402754226e+002 1.974180188084e+002 1.985263600465e+002 1.987571554549e+002 1.989636470113e+002 1.986706109339e+002 1.988854112485e+002 1.991412031954e+002 1.990758663030e+002 1.977333545311e+002 1.992985831050e+002 1.992439884097e+002 1.997436068480e+002 1.971007748575e+002 1.996940989038e+002 1.974227387256e+002 1.996263361117e+002 1.977274076738e+002 1.995381497112e+002 1.984248840369e+002 1.986662009159e+002 1.988815947087e+002 1.990719551329e+002 1.994282756617e+002 1.967085244415e+002 1.997638601386e+002 1.997636794365e+002 1.982726206149e+002 1.980083115580e+002 1.969087367651e+002 1.992967516604e+002 1.988862600465e+002 1.990770398692e+002 1.986721112206e+002 1.984256085956e+002 1.971041716457e+002 1.975323603593e+002 1.997432581560e+002 1.978333201796e+002 1.996946564017e+002 1.995974323285e+002 1.993838198081e+002 1.995016976666e+002 1.971171698016e+002 1.997726943259e+002 1.997726936597e+002 1.982056486013e+002 1.965439305335e+002 1.997642430479e+002 1.993134563014e+002 1.993688636108e+002 1.994893383836e+002 1.978632961648e+002 1.995875474628e+002 1.975673978858e+002 1.986461486106e+002 1.988636654119e+002 1.990566583275e+002 1.997472044280e+002 1.970710830151e+002 1.997011723859e+002 1.968235745410e+002 1.984107472106e+002 1.997823232586e+002 1.997821080422e+002 1.997609408991e+002 1.984480432980e+002 1.978156239226e+002 1.983019966015e+002 1.979797093540e+002 1.965447195750e+002 1.969416479852e+002 1.965037740866e+002 1.966316257340e+002 1.969423585655e+002 1.991564722180e+002 1.989781560615e+002 1.987747373326e+002 1.985470834972e+002 1.996659901171e+002 1.972510079068e+002 1.997231448591e+002 1.992256802784e+002 1.994413423195e+002 1.996651123036e+002 1.995497530769e+002 1.997225097882e+002 1.996354433245e+002 1.991593034903e+002 1.989780821468e+002 1.987769949436e+002 1.985495887701e+002 1.972554419773e+002 1.976949716536e+002 1.973859819513e+002 1.973858592810e+002 1.996354350262e+002 1.976919309467e+002 1.995497313678e+002 1.994424978650e+002 1.992256567203e+002 1.997859877292e+002 1.997860394263e+002 1.979352611078e+002 1.978090388772e+002 1.997827167882e+002 1.965874457791e+002 1.997755409611e+002 1.997760294241e+002 1.964792876724e+002 1.997809847551e+002 1.964890993548e+002 1.966245347229e+002 1.979693367270e+002 1.983133865966e+002 1.969679476405e+002 1.965302696764e+002 1.979416627659e+002 1.968031393779e+002 1.967950254423e+002 1.983392936563e+002 1.966743066345e+002 1.980433636249e+002 1.982014641029e+002 1.966410859771e+002 1.975539703090e+002 1.993756789257e+002 1.994941448066e+002 1.995913958697e+002 1.996996635068e+002 1.997465485635e+002 1.993058047051e+002 1.984152956072e+002 1.986552915341e+002 1.988718445104e+002 1.990638467837e+002 1.980857632252e+002 1.968031405008e+002 1.982094495150e+002 1.980749799626e+002 1.997620107643e+002 1.997803291177e+002 1.970837548815e+002 1.978436966019e+002 1.965135585575e+002 1.966933720637e+002 1.997836472812e+002 1.966612441871e+002 1.991799897119e+002 1.990047708121e+002 1.988048225390e+002 1.985805217726e+002 1.993507336861e+002 1.993321306768e+002 1.992055056697e+002 1.994754825644e+002 1.995764139391e+002 1.979020032437e+002 1.996561853619e+002 1.976054819196e+002 1.997160818670e+002 1.972960651949e+002 1.997521318684e+002 1.997158305204e+002 1.996563467074e+002 1.995768105288e+002 1.994759733595e+002 1.972957840272e+002 1.976042164847e+002 1.985817548679e+002 1.988045841072e+002 1.990045606545e+002 1.997520139297e+002 1.970278641604e+002 1.983749088977e+002 1.997550568886e+002 1.997768780604e+002 1.997768804209e+002 1.970494831382e+002 1.969305519632e+002 1.964762821343e+002 1.981871933517e+002 1.997389971791e+002 1.996886172739e+002 1.996060665152e+002 1.995125338226e+002 1.993953843371e+002 1.971377827146e+002 1.975007896824e+002 1.978021307889e+002 1.990960841596e+002 1.986964478417e+002 1.984607211311e+002 1.989051511979e+002 1.992836639510e+002 1.997668347074e+002 1.997844528795e+002 1.997844539306e+002 1.997108286093e+002 1.995714074887e+002 1.994692719176e+002 1.976223057324e+002 1.986046016047e+002 1.988264482699e+002 1.990238686542e+002 1.969082502041e+002 1.981031530270e+002 1.993451345549e+002 1.993379421096e+002 1.983600930857e+002 1.997863891783e+002 1.985527150455e+002 1.978731480804e+002 1.983994567601e+002 1.994063116224e+002 1.995201871660e+002 1.996121442189e+002 1.997356788336e+002 1.996838320661e+002 1.977803088934e+002 1.974779319255e+002 1.971626297057e+002 1.989234449846e+002 1.991091004425e+002 1.984788506565e+002 1.987131348804e+002 1.997356749318e+002 1.996838129991e+002 1.987131241097e+002 1.989239257630e+002 1.996125731090e+002 1.991093167778e+002 1.995207298581e+002 1.994071422828e+002 1.974764593440e+002 1.992708767315e+002 1.992700844379e+002 1.967747496418e+002 1.979804562438e+002 1.967583049190e+002 1.984289188915e+002 1.981546393639e+002 1.997735851563e+002 1.997732823649e+002 1.982591260537e+002 1.982804906140e+002 1.981725475416e+002 1.993595014184e+002 1.991710120841e+002 1.992138654719e+002 1.993230712783e+002 1.990438569322e+002 1.988491245451e+002 1.986298992237e+002 1.994513453922e+002 1.973626097493e+002 1.976693937695e+002 1.997055397457e+002 1.996410414568e+002 1.995569114670e+002 1.997050366283e+002 1.973623015955e+002 1.996410449300e+002 1.976693336080e+002 1.986299035565e+002 1.988491286713e+002 1.990402321208e+002 1.995569140771e+002 1.994513469190e+002 1.970372059395e+002 1.965177225763e+002 1.997846630776e+002 1.969902520981e+002 1.991934887530e+002 1.991918058190e+002 1.973196295639e+002 1.973190918515e+002 1.996510588616e+002 1.996509739248e+002 1.997817220976e+002 1.966733264081e+002 1.965003459082e+002 1.970305782145e+002 1.967231356097e+002 1.997864220077e+002 1.986640132637e+002 1.997864428430e+002 1.985691010378e+002 1.966015728450e+002 1.997588307461e+002 1.997589154559e+002 1.994662176365e+002 1.995689456501e+002 1.976304129205e+002 1.990182032392e+002 1.985974457457e+002 1.988200226183e+002 1.997121698755e+002 1.968766108438e+002 1.968851628726e+002 1.965083942737e+002 1.983206195951e+002 1.979609553967e+002 1.965132950141e+002 1.969623403505e+002 1.971736924085e+002 1.980347218021e+002 1.969192716087e+002 1.997683988495e+002 1.997683994009e+002 1.980049130141e+002 1.982927210850e+002 1.997636812725e+002 1.978935798994e+002 1.982994564817e+002 1.982556905117e+002 1.996949705975e+002 1.971012818649e+002 1.997435532328e+002 1.986464767767e+002 1.988634283139e+002 1.990569158464e+002 1.993146698849e+002 1.975376488424e+002 1.995959411915e+002 1.978369696510e+002 1.994998299737e+002 1.993674358542e+002 1.997545652928e+002 1.967963896506e+002 1.982062235874e+002 1.981135100151e+002 1.979233314683e+002 1.966042693980e+002 1.997864754174e+002 1.987592645356e+002 1.997864766702e+002 1.988660823687e+002 1.965056965456e+002 1.970052454108e+002 1.981388402086e+002 1.980359735510e+002 1.997818986520e+002 1.977636980325e+002 1.984890073034e+002 1.968811105801e+002 1.983256710817e+002 1.966893833767e+002 1.994295276365e+002 1.995391708526e+002 1.996271398871e+002 1.977242920026e+002 1.974195164935e+002 1.996362380480e+002 1.997220530148e+002 1.995507703080e+002 1.996645028590e+002 1.994437863846e+002 1.973826330848e+002 1.976887086519e+002 1.972585223946e+002 1.985517671222e+002 1.989822179524e+002 1.987788928322e+002 1.991603903473e+002 1.997266404400e+002 1.996709306796e+002 1.972271903219e+002 1.992423751249e+002 1.985235402119e+002 1.987535097428e+002 1.989593258255e+002 1.991404378238e+002 1.992242880974e+002 1.992700891052e+002 1.991090815711e+002 1.987131202865e+002 1.989234428695e+002 1.984788422254e+002 1.997356818413e+002 1.996838145207e+002 1.996127420406e+002 1.994069812904e+002 1.995209420415e+002 1.971634162952e+002 1.974757572280e+002 1.977787150015e+002 1.979570692822e+002 1.969480626105e+002 1.997815851028e+002 1.965080283086e+002 1.992216446829e+002 1.991628385448e+002 1.989846060732e+002 1.987820286436e+002 1.985551811627e+002 1.996630018277e+002 1.997210275269e+002 1.972650034267e+002 1.996373400372e+002 1.995519067656e+002 1.994450283695e+002 1.973779076197e+002 1.976854979993e+002 1.981316340062e+002 1.997688626398e+002 1.981001160755e+002 1.997714535525e+002 1.992672536694e+002 1.992719221829e+002 1.991144177223e+002 1.989294376555e+002 1.987199726547e+002 1.984864149094e+002 1.997348696178e+002 1.996826453967e+002 1.996104277684e+002 1.995180248443e+002 1.994093444678e+002 1.974845644974e+002 1.994054386390e+002 1.987173488801e+002 1.989196797886e+002 1.991123790086e+002 1.995197761389e+002 1.996118174601e+002 1.977814779981e+002 1.996839207809e+002 1.974791663740e+002 1.997357535859e+002 1.971621059049e+002 1.967310977879e+002 1.996764098653e+002 1.972004506914e+002 1.997305100115e+002 1.987377693626e+002 1.991282455038e+002 1.989468412564e+002 1.985061022658e+002 1.974426458811e+002 1.996213026911e+002 1.977464534967e+002 1.995317673042e+002 1.994201171011e+002 1.992541486173e+002 1.964762888656e+002 1.997864496857e+002 1.986891961211e+002 1.997751129968e+002 1.997799786686e+002 1.997799763252e+002 1.980912762593e+002 1.981976160547e+002 1.968671352848e+002 1.971697524668e+002 1.997611649007e+002 1.964640877323e+002 1.997683783701e+002 1.997682771931e+002 1.969908421611e+002 1.993667495415e+002 1.994878552083e+002 1.978682398130e+002 1.995863584109e+002 1.975715612940e+002 1.990587584218e+002 1.988636906739e+002 1.986488239310e+002 1.993143387102e+002 1.997479672254e+002 1.970602047826e+002 1.997019279608e+002 1.979218242040e+002 1.983569082375e+002 1.980648598069e+002 1.965913369896e+002 1.965020049179e+002 1.997855000887e+002 1.974503243455e+002 1.997854997024e+002 1.973836535332e+002 1.984913801756e+002 1.977648837365e+002 1.983990210515e+002 1.966338315832e+002 1.997500022608e+002 1.969838696316e+002 1.980132570040e+002 1.982379869779e+002 1.980583387838e+002 1.968533728033e+002 1.965913582077e+002 1.967418665780e+002 1.978269043306e+002 1.965896974792e+002 1.967917721362e+002 1.980828816259e+002 1.964658315228e+002 1.965429891095e+002 1.981670756652e+002 1.979902921747e+002 1.982460239695e+002 1.980302072494e+002 1.997780598762e+002 1.965829712284e+002 1.970894289970e+002 1.992862638428e+002 1.993219531286e+002 1.997498546209e+002 1.997048367245e+002 1.997408113983e+002 1.996908781136e+002 1.995866688327e+002 1.994882399951e+002 1.975706019612e+002 1.993931424784e+002 1.993605767289e+002 1.984453952069e+002 1.983941466635e+002 1.986832153583e+002 1.986322593959e+002 1.988512383928e+002 1.988968215412e+002 1.990856473229e+002 1.990456415657e+002 1.967518523032e+002 1.997839576380e+002 1.997839330796e+002 1.997853929643e+002 1.997853936137e+002 1.970831119235e+002 1.997849994583e+002 1.991455152191e+002 1.989651448254e+002 1.987600644925e+002 1.985308025815e+002 1.992377322670e+002 1.993013045982e+002 1.993797499434e+002 1.994983450057e+002 1.978414569685e+002 1.995947563791e+002 1.975419183290e+002 1.996702787984e+002 1.972303003304e+002 1.997261833015e+002 1.997261706506e+002 1.996702600326e+002 1.997443860890e+002 1.995946802905e+002 1.994982499918e+0