<?xml version="1.0"?>
<VTKFile type="UnstructuredGrid" version="0.1" byte_order="LittleEndian">
  <UnstructuredGrid>
    <Piece NumberOfPoints="2604" NumberOfCells="4910">
      <Points>
        <DataArray type="Float64" NumberOfComponents="3" format="ascii">
          0.000000000000e+000 0.000000000000e+000 0.000000000000e+000
          2.000000000000e+002 0.000000000000e+000 0.000000000000e+000
          2.000000000000e+002 2.000000000000e+001 0.000000000000e+000
          0.000000000000e+000 2.000000000000e+001 0.000000000000e+000
          1.492537313427e+000 0.000000000000e+000 0.000000000000e+000
          2.985074626854e+000 0.000000000000e+000 0.000000000000e+000
          4.477611940281e+000 0.000000000000e+000 0.000000000000e+000
          5.970149253708e+000 0.000000000000e+000 0.000000000000e+000
          7.462686567135e+000 0.000000000000e+000 0.000000000000e+000
          8.955223880561e+000 0.000000000000e+000 0.000000000000e+000
          1.044776119399e+001 0.000000000000e+000 0.000000000000e+000
          1.194029850741e+001 0.000000000000e+000 0.000000000000e+000
          1.343283582084e+001 0.000000000000e+000 0.000000000000e+000
          1.492537313427e+001 0.000000000000e+000 0.000000000000e+000
          1.641791044770e+001 0.000000000000e+000 0.000000000000e+000
          1.791044776112e+001 0.000000000000e+000 0.000000000000e+000
          1.940298507455e+001 0.000000000000e+000 0.000000000000e+000
          2.089552238798e+001 0.000000000000e+000 0.000000000000e+000
          2.238805970141e+001 0.000000000000e+000 0.000000000000e+000
          2.388059701484e+001 0.000000000000e+000 0.000000000000e+000
          2.537313432826e+001 0.000000000000e+000 0.000000000000e+000
          2.686567164169e+001 0.000000000000e+000 0.000000000000e+000
          2.835820895511e+001 0.000000000000e+000 0.000000000000e+000
          2.985074626854e+001 0.000000000000e+000 0.000000000000e+000
          3.134328358196e+001 0.000000000000e+000 0.000000000000e+000
          3.283582089539e+001 0.000000000000e+000 0.000000000000e+000
          3.432835820881e+001 0.000000000000e+000 0.000000000000e+000
          3.582089552224e+001 0.000000000000e+000 0.000000000000e+000
          3.731343283566e+001 0.000000000000e+000 0.000000000000e+000
          3.880597014909e+001 0.000000000000e+000 0.000000000000e+000
          4.029850746251e+001 0.000000000000e+000 0.000000000000e+000
          4.179104477594e+001 0.000000000000e+000 0.000000000000e+000
          4.328358208936e+001 0.000000000000e+000 0.000000000000e+000
          4.477611940279e+001 0.000000000000e+000 0.000000000000e+000
          4.626865671621e+001 0.000000000000e+000 0.000000000000e+000
          4.776119402964e+001 0.000000000000e+000 0.000000000000e+000
          4.925373134306e+001 0.000000000000e+000 0.000000000000e+000
          5.074626865649e+001 0.000000000000e+000 0.000000000000e+000
          5.223880596991e+001 0.000000000000e+000 0.000000000000e+000
          5.373134328334e+001 0.000000000000e+000 0.000000000000e+000
          5.522388059676e+001 0.000000000000e+000 0.000000000000e+000
          5.671641791019e+001 0.000000000000e+000 0.000000000000e+000
          5.820895522361e+001 0.000000000000e+000 0.000000000000e+000
          5.970149253704e+001 0.000000000000e+000 0.000000000000e+000
          6.119402985046e+001 0.000000000000e+000 0.000000000000e+000
          6.268656716389e+001 0.000000000000e+000 0.000000000000e+000
          6.417910447732e+001 0.000000000000e+000 0.000000000000e+000
          6.567164179075e+001 0.000000000000e+000 0.000000000000e+000
          6.716417910418e+001 0.000000000000e+000 0.000000000000e+000
          6.865671641761e+001 0.000000000000e+000 0.000000000000e+000
          7.014925373104e+001 0.000000000000e+000 0.000000000000e+000
          7.164179104447e+001 0.000000000000e+000 0.000000000000e+000
          7.313432835790e+001 0.000000000000e+000 0.000000000000e+000
          7.462686567133e+001 0.000000000000e+000 0.000000000000e+000
          7.611940298476e+001 0.000000000000e+000 0.000000000000e+000
          7.761194029819e+001 0.000000000000e+000 0.000000000000e+000
          7.910447761162e+001 0.000000000000e+000 0.000000000000e+000
          8.059701492505e+001 0.000000000000e+000 0.000000000000e+000
          8.208955223848e+001 0.000000000000e+000 0.000000000000e+000
          8.358208955191e+001 0.000000000000e+000 0.000000000000e+000
          8.507462686534e+001 0.000000000000e+000 0.000000000000e+000
          8.656716417877e+001 0.000000000000e+000 0.000000000000e+000
          8.805970149220e+001 0.000000000000e+000 0.000000000000e+000
          8.955223880563e+001 0.000000000000e+000 0.000000000000e+000
          9.104477611907e+001 0.000000000000e+000 0.000000000000e+000
          9.253731343250e+001 0.000000000000e+000 0.000000000000e+000
          9.402985074593e+001 0.000000000000e+000 0.000000000000e+000
          9.552238805936e+001 0.000000000000e+000 0.000000000000e+000
          9.701492537279e+001 0.000000000000e+000 0.000000000000e+000
          9.850746268622e+001 0.000000000000e+000 0.000000000000e+000
          9.999999999965e+001 0.000000000000e+000 0.000000000000e+000
          1.014925373131e+002 0.000000000000e+000 0.000000000000e+000
          1.029850746265e+002 0.000000000000e+000 0.000000000000e+000
          1.044776119399e+002 0.000000000000e+000 0.000000000000e+000
          1.059701492534e+002 0.000000000000e+000 0.000000000000e+000
          1.074626865668e+002 0.000000000000e+000 0.000000000000e+000
          1.089552238802e+002 0.000000000000e+000 0.000000000000e+000
          1.104477611937e+002 0.000000000000e+000 0.000000000000e+000
          1.119402985071e+002 0.000000000000e+000 0.000000000000e+000
          1.134328358205e+002 0.000000000000e+000 0.000000000000e+000
          1.149253731340e+002 0.000000000000e+000 0.000000000000e+000
          1.164179104474e+002 0.000000000000e+000 0.000000000000e+000
          1.179104477608e+002 0.000000000000e+000 0.000000000000e+000
          1.194029850742e+002 0.000000000000e+000 0.000000000000e+000
          1.208955223877e+002 0.000000000000e+000 0.000000000000e+000
          1.223880597011e+002 0.000000000000e+000 0.000000000000e+000
          1.238805970145e+002 0.000000000000e+000 0.000000000000e+000
          1.253731343280e+002 0.000000000000e+000 0.000000000000e+000
          1.268656716414e+002 0.000000000000e+000 0.000000000000e+000
          1.283582089548e+002 0.000000000000e+000 0.000000000000e+000
          1.298507462683e+002 0.000000000000e+000 0.000000000000e+000
          1.313432835817e+002 0.000000000000e+000 0.000000000000e+000
          1.328358208952e+002 0.000000000000e+000 0.000000000000e+000
          1.343283582086e+002 0.000000000000e+000 0.000000000000e+000
          1.358208955220e+002 0.000000000000e+000 0.000000000000e+000
          1.373134328355e+002 0.000000000000e+000 0.000000000000e+000
          1.388059701489e+002 0.000000000000e+000 0.000000000000e+000
          1.402985074624e+002 0.000000000000e+000 0.000000000000e+000
          1.417910447758e+002 0.000000000000e+000 0.000000000000e+000
          1.432835820892e+002 0.000000000000e+000 0.000000000000e+000
          1.447761194027e+002 0.000000000000e+000 0.000000000000e+000
          1.462686567161e+002 0.000000000000e+000 0.000000000000e+000
          1.477611940296e+002 0.000000000000e+000 0.000000000000e+000
          1.492537313430e+002 0.000000000000e+000 0.000000000000e+000
          1.507462686564e+002 0.000000000000e+000 0.000000000000e+000
          1.522388059699e+002 0.000000000000e+000 0.000000000000e+000
          1.537313432833e+002 0.000000000000e+000 0.000000000000e+000
          1.552238805968e+002 0.000000000000e+000 0.000000000000e+000
          1.567164179102e+002 0.000000000000e+000 0.000000000000e+000
          1.582089552237e+002 0.000000000000e+000 0.000000000000e+000
          1.597014925371e+002 0.000000000000e+000 0.000000000000e+000
          1.611940298505e+002 0.000000000000e+000 0.000000000000e+000
          1.626865671640e+002 0.000000000000e+000 0.000000000000e+000
          1.641791044774e+002 0.000000000000e+000 0.000000000000e+000
          1.656716417909e+002 0.000000000000e+000 0.000000000000e+000
          1.671641791043e+002 0.000000000000e+000 0.000000000000e+000
          1.686567164177e+002 0.000000000000e+000 0.000000000000e+000
          1.701492537312e+002 0.000000000000e+000 0.000000000000e+000
          1.716417910446e+002 0.000000000000e+000 0.000000000000e+000
          1.731343283581e+002 0.000000000000e+000 0.000000000000e+000
          1.746268656715e+002 0.000000000000e+000 0.000000000000e+000
          1.761194029849e+002 0.000000000000e+000 0.000000000000e+000
          1.776119402984e+002 0.000000000000e+000 0.000000000000e+000
          1.791044776118e+002 0.000000000000e+000 0.000000000000e+000
          1.805970149253e+002 0.000000000000e+000 0.000000000000e+000
          1.820895522387e+002 0.000000000000e+000 0.000000000000e+000
          1.835820895521e+002 0.000000000000e+000 0.000000000000e+000
          1.850746268656e+002 0.000000000000e+000 0.000000000000e+000
          1.865671641790e+002 0.000000000000e+000 0.000000000000e+000
          1.880597014925e+002 0.000000000000e+000 0.000000000000e+000
          1.895522388059e+002 0.000000000000e+000 0.000000000000e+000
          1.910447761194e+002 0.000000000000e+000 0.000000000000e+000
          1.925373134328e+002 0.000000000000e+000 0.000000000000e+000
          1.940298507462e+002 0.000000000000e+000 0.000000000000e+000
          1.955223880597e+002 0.000000000000e+000 0.000000000000e+000
          1.970149253731e+002 0.000000000000e+000 0.000000000000e+000
          1.985074626866e+002 0.000000000000e+000 0.000000000000e+000
          2.000000000000e+002 1.428571428570e+000 0.000000000000e+000
          2.000000000000e+002 2.857142857140e+000 0.000000000000e+000
[...]
      <PointData Scalars="MEAN_PRESSURE">
        <DataArray type="Float64" Name="MEAN_PRESSURE" format="ascii">
          2.000000000000e+002 1.998572823439e+002 1.998572811870e+002 2.000000000000e+002 1.992329502266e+002 1.978976892249e+002 1.971280971028e+002 1.967058812868e+002 1.965128794772e+002 1.964548107495e+002 1.964620180733e+002 1.965004861109e+002 1.965500101117e+002 1.966020658102e+002 1.966536845132e+002 1.967042681507e+002 1.967540566737e+002 1.968033709295e+002 1.968524705587e+002 1.969014917699e+002 1.969504937648e+002 1.969994665219e+002 1.970484064638e+002 1.970972874750e+002 1.971460812746e+002 1.971947586330e+002 1.972433014251e+002 1.972916847001e+002 1.973398818675e+002 1.973878752414e+002 1.974356443774e+002 1.974831769595e+002 1.975304469932e+002 1.975774421277e+002 1.976241452804e+002 1.976705371581e+002 1.977166095428e+002 1.977623382944e+002 1.978077158249e+002 1.978527322652e+002 1.978973627329e+002 1.979415887284e+002 1.979854159911e+002 1.980288208181e+002 1.980717982207e+002 1.981143331715e+002 1.981564239390e+002 1.981980342582e+002 1.982391909472e+002 1.982798550843e+002 1.983200243602e+002 1.983596963484e+002 1.983988729524e+002 1.984375069987e+002 1.984756320955e+002 1.985132295109e+002 1.985502989829e+002 1.985868152310e+002 1.986227816497e+002 1.986582230378e+002 1.986930800214e+002 1.987273805785e+002 1.987611183948e+002 1.987943010415e+002 1.988269100948e+002 1.988589481191e+002 1.988904153018e+002 1.989213044203e+002 1.989516250528e+002 1.989813634345e+002 1.990105385445e+002 1.990391272209e+002 1.990671490773e+002 1.990945950571e+002 1.991214666762e+002 1.991477742730e+002 1.991735071402e+002 1.991986849465e+002 1.992232949886e+002 1.992473476437e+002 1.992708356667e+002 1.992937801680e+002 1.993161696943e+002 1.993380192214e+002 1.993593242423e+002 1.993800920527e+002 1.994003308595e+002 1.994200422066e+002 1.994392313379e+002 1.994579046094e+002 1.994760671934e+002 1.994937255106e+002 1.995108853308e+002 1.995275487456e+002 1.995437193837e+002 1.995594140690e+002 1.995746271489e+002 1.995893707156e+002 1.996036514672e+002 1.996174769844e+002 1.996308487359e+002 1.996437706919e+002 1.996562587093e+002 1.996683081456e+002 1.996799306160e+002 1.996911327907e+002 1.997019220361e+002 1.997123000474e+002 1.997222707046e+002 1.997318485557e+002 1.997410294471e+002 1.997498237175e+002 1.997582382336e+002 1.997662803780e+002 1.997739490535e+002 1.997812485134e+002 1.997881921595e+002 1.997947754748e+002 1.998010073032e+002 1.998068929408e+002 1.998124387824e+002 1.998176453644e+002 1.998225138015e+002 1.998270505891e+002 1.998312586927e+002 1.998351388937e+002 1.998387008995e+002 1.998419471613e+002 1.998448716935e+002 1.998474884508e+002 1.998497970522e+002 1.998517793346e+002 1.998534579009e+002 1.998548304899e+002 1.998559139481e+002 1.998566452567e+002 1.998571157358e+002 1.998572660676e+002 1.998572509102e+002 1.998572838260e+002 1.998572772235e+002 1.998572739909e+002 1.998572680499e+002 1.998572641528e+002 1.998572668573e+002 1.998572671700e+002 1.998572597383e+002 1.998572802858e+002 1.998572490609e+002 1.998572647882e+002 1.998571146953e+002 1.998566444333e+002 1.998559132360e+002 1.998548297858e+002 1.998534573613e+002 1.998517797735e+002 1.998497984445e+002 1.998474900475e+002 1.998448732041e+002 1.998419485886e+002 1.998387012760e+002 1.998351395339e+002 1.998312585391e+002 1.998270495789e+002 1.998225130507e+002 1.998176437989e+002 1.998124367945e+002 1.998068974060e+002 1.998010110153e+002 1.997947764370e+002 1.997881919695e+002 1.997812497656e+002 1.997739460477e+002 1.997662799941e+002 1.997582410896e+002 1.997498275700e+002 1.997410294608e+002 1.997318474012e+002 1.997222685023e+002 1.997122988059e+002 1.997019202574e+002 1.996911336325e+002 1.996799321732e+002 1.996683052984e+002 1.996562568655e+002 1.996437688533e+002 1.996308482733e+002 1.996174757532e+002 1.996036526340e+002 1.995893720529e+002 1.995746234645e+002 1.995594119110e+002 1.995437178669e+002 1.995275488919e+002 1.995108848694e+002 1.994937223731e+002 1.994760684544e+002 1.994579054773e+002 1.994392317266e+002 1.994200421558e+002 1.994003324270e+002 1.993800976336e+002 1.993593288513e+002 1.993380188872e+002 1.993161752206e+002 1.992937804182e+002 1.992708369308e+002 1.992473424215e+002 1.992232972151e+002 1.991986845846e+002 1.991735135145e+002 1.991477769720e+002 1.991214688392e+002 1.990945915577e+002 1.990671453692e+002 1.990391296920e+002 1.990105365364e+002 1.989813681950e+002 1.989516228421e+002 1.989213044445e+002 1.988904109140e+002 1.988589455683e+002 1.988269109758e+002 1.987943021527e+002 1.987611243171e+002 1.987273785656e+002 1.986930717018e+002 1.986582045403e+002 1.986227829408e+002 1.985868144463e+002 1.985502962750e+002 1.985132359740e+002 1.984756371676e+002 1.984375103838e+002 1.983988589694e+002 1.983596939235e+002 1.983200219389e+002 1.982798400953e+002 1.982391812018e+002 1.981980377448e+002 1.981564158326e+002 1.981143369839e+002 1.980717933317e+002 1.980288093423e+002 1.979854001906e+002 1.979415670246e+002 1.978973259200e+002 1.978526915747e+002 1.978076727814e+002 1.977622808446e+002 1.977165370615e+002 1.976704462687e+002 1.976240268257e+002 1.975772932511e+002 1.975302606917e+002 1.974829403407e+002 1.974353459094e+002 1.973874973120e+002 1.973394020934e+002 1.972910775858e+002 1.972425376743e+002 1.971937963567e+002 1.971448627594e+002 1.970957474115e+002 1.970464600848e+002 1.969970051913e+002 1.969473781681e+002 1.968975574876e+002 1.968474980596e+002 1.967970742771e+002 1.967461125032e+002 1.966942462387e+002 1.966410554161e+002 1.965862545858e+002 1.965303621795e+002 1.964765237113e+002 1.964337819923e+002 1.964201568052e+002 1.964786017926e+002 1.966742455990e+002 1.970936516969e+002 1.978733354536e+002 1.992060084228e+002 2.000000000000e+002 2.000000000000e+002 2.000000000000e+002 2.000000000000e+002 2.000000000000e+002 2.000000000000e+002 2.000000000000e+002 2.000000000000e+002 2.000000000000e+002 2.000000000000e+002 2.000000000000e+002 2.000000000000e+002 2.000000000000e+002 1.998504015449e+002 1.964303231060e+002 1.998293275649e+002 1.997916513661e+002 1.997359061938e+002 1.996615753346e+002 1.995661173359e+002 1.970228211533e+002 1.994486210693e+002 1.973666854618e+002 1.976964514915e+002 1.980125579408e+002 1.984533830751e+002 1.987102826363e+002 1.989365211070e+002 1.991346783195e+002 1.993050292132e+002 1.967292346386e+002 1.982391887201e+002 1.993800851543e+002 1.993791474797e+002 1.992232960823e+002 1.990391281046e+002 1.988269120977e+002 1.985868180725e+002 1.998132526275e+002 1.997674679442e+002 1.997031517126e+002 1.985868074033e+002 1.988210969268e+002 1.990414107464e+002 1.992189146118e+002 1.996190612587e+002 1.995108755642e+002 1.971920954172e+002 1.975248462161e+002 1.978577623822e+002 1.995116693697e+002 1.996176047840e+002 1.997020207833e+002 1.997662707842e+002 1.998124302863e+002 1.978522358947e+002 1.975298190480e+002 1.971940100683e+002 1.998416232176e+002 1.998414285559e+002 1.981504204216e+002 1.983306843755e+002 1.965902922902e+002 1.968552134615e+002 1.998548756734e+002 1.966880433182e+002 1.998549136220e+002 1.966717228485e+002 1.965609976606e+002 1.968943133716e+002 1.981046879439e+002 1.983653192683e+002 1.998291995152e+002 1.993050339612e+002 1.997915220470e+002 1.991346923175e+002 1.989365363798e+002 1.987102957524e+002 1.984647244361e+002 1.994484412000e+002 1.997366411109e+002 1.996634007718e+002 1.995684266914e+002 1.973629499190e+002 1.976894927728e+002 1.994488017097e+002 1.995670692937e+002 1.996623291398e+002 1.997364806566e+002 1.987102244946e+002 1.989364714078e+002 1.991346317232e+002 1.997915219756e+002 1.993054343255e+002 1.998291940751e+002 1.980071639131e+002 1.976935388177e+002 1.973635357600e+002 1.970220548381e+002 1.998495331937e+002 1.998496767733e+002 1.964320730407e+002 1.970491241903e+002 1.984833413804e+002 1.979737921167e+002 1.998560176781e+002 1.971744728348e+002 1.967341062792e+002 1.964479527547e+002 1.967263913769e+002 1.982156518772e+002 1.981287300966e+002 1.983476234334e+002 1.965659760236e+002 1.968625662015e+002 1.982401104434e+002 1.998439830771e+002 1.997112977154e+002 1.997585255472e+002 1.996295565883e+002 1.998070887872e+002 1.995259155908e+002 1.992433181034e+002 1.988535792252e+002 1.986167553938e+002 1.990644102184e+002 1.972411157151e+002 1.978120855467e+002 1.974876821939e+002 1.993613425502e+002 1.982391836925e+002 1.998565035565e+002 1.977195925213e+002 1.998565035545e+002 1.976802156132e+002 1.992558438052e+002 1.990770688209e+002 1.988703165643e+002 1.986355763813e+002 1.994874126009e+002 1.993508616172e+002 1.994074659315e+002 1.995985532858e+002 1.979132792963e+002 1.996871387161e+002 1.975941447042e+002 1.997552413510e+002 1.972600703962e+002 1.998048038533e+002 1.998045810229e+002 1.998197801715e+002 1.997549192003e+002 1.997767544141e+002 1.996861020962e+002 1.997155333393e+002 1.995972296104e+002 1.996350362347e+002 1.972672456303e+002 1.995326817131e+002 1.994873623756e+002 1.975986563342e+002 1.974678822747e+002 1.986357779383e+002 1.988716087330e+002 1.990792774263e+002 1.987835919238e+002 1.990010074118e+002 1.992547912620e+002 1.991905698311e+002 1.978044567577e+002 1.994075173087e+002 1.993548730019e+002 1.998194320861e+002 1.971273035666e+002 1.997754772572e+002 1.974729437407e+002 1.997144268731e+002 1.977981332952e+002 1.996335998240e+002 1.985310303816e+002 1.987790960619e+002 1.989971781950e+002 1.991867142759e+002 1.995309875164e+002 1.967066953592e+002 1.998372423855e+002 1.998370839141e+002 1.983728158828e+002 1.980956186937e+002 1.969206536301e+002 1.994057578399e+002 1.990018585769e+002 1.991917263147e+002 1.987851212496e+002 1.985317788024e+002 1.971309369111e+002 1.975902005286e+002 1.998191244096e+002 1.979106003697e+002 1.997759753499e+002 1.996880978945e+002 1.994889317477e+002 1.995997776145e+002 1.971449045874e+002 1.998449785674e+002 1.998449779715e+002 1.983028645780e+002 1.965311050661e+002 1.998375781349e+002 1.994217957550e+002 1.994747189784e+002 1.995882595204e+002 1.979423689093e+002 1.996790568755e+002 1.976276245708e+002 1.987586217273e+002 1.989791606114e+002 1.991716085741e+002 1.998226033456e+002 1.970953468987e+002 1.997817926093e+002 1.968290957938e+002 1.985163901094e+002 1.998533874524e+002 1.998531997493e+002 1.998346818147e+002 1.985549859992e+002 1.978918328393e+002 1.984034294285e+002 1.980654510721e+002 1.964689819844e+002 1.969560320018e+002 1.964850927603e+002 1.966252693332e+002 1.969567319866e+002 1.992697351568e+002 1.990937348423e+002 1.988894220957e+002 1.986570913336e+002 1.997502727080e+002 1.972887787267e+002 1.998013357337e+002 1.993371395847e+002 1.995432951421e+002 1.997494834210e+002 1.996443191941e+002 1.998007728520e+002 1.997226890940e+002 1.992725031543e+002 1.990936620680e+002 1.988917071665e+002 1.986596655328e+002 1.972935337437e+002 1.977636267062e+002 1.974335670148e+002 1.974334382868e+002 1.997226811071e+002 1.977603877036e+002 1.996442974895e+002 1.995443789909e+002 1.993371140132e+002 1.998565811598e+002 1.998566261875e+002 1.978227301605e+002 1.976916275643e+002 1.998537305545e+002 1.965081707413e+002 1.998474670867e+002 1.998478938219e+002 1.964230833930e+002 1.998522199794e+002 1.964636908837e+002 1.965444361455e+002 1.980545058019e+002 1.984152937979e+002 1.969843006673e+002 1.965138351313e+002 1.980252775086e+002 1.968073785285e+002 1.967985751971e+002 1.984422414039e+002 1.966704424898e+002 1.981325474783e+002 1.982984879465e+002 1.966354538521e+002 1.976132859307e+002 1.994812023711e+002 1.995927429239e+002 1.996825796219e+002 1.997804468303e+002 1.998220255735e+002 1.994144566608e+002 1.985211025209e+002 1.987679602029e+002 1.989873831824e+002 1.991787098493e+002 1.981771490326e+002 1.968073298497e+002 1.983068413330e+002 1.981658152672e+002 1.998356205534e+002 1.998516479396e+002 1.971089604117e+002 1.979215995413e+002 1.964542567731e+002 1.965965159364e+002 1.998545417726e+002 1.966566968168e+002 1.992926986658e+002 1.991201996760e+002 1.989198489798e+002 1.986914297100e+002 1.994574477068e+002 1.994396787693e+002 1.993175441664e+002 1.995753149254e+002 1.996688500353e+002 1.979833447819e+002 1.997414394656e+002 1.976682667664e+002 1.997950654486e+002 1.973371498432e+002 1.998269413264e+002 1.997948423396e+002 1.997415851977e+002 1.996692138207e+002 1.995757734404e+002 1.973368353461e+002 1.976669143721e+002 1.986926955509e+002 1.989196084233e+002 1.991199912695e+002 1.998268375246e+002 1.970488486144e+002 1.984792331369e+002 1.998295137303e+002 1.998486351265e+002 1.998486372042e+002 1.970720630331e+002 1.969440677439e+002 1.964506476988e+002 1.982835521755e+002 1.998153641050e+002 1.997705757500e+002 1.996959803077e+002 1.996098560345e+002 1.994999008452e+002 1.971670964829e+002 1.975564575988e+002 1.978775161084e+002 1.992104917709e+002 1.988099252809e+002 1.985680885684e+002 1.990208082648e+002 1.993931699183e+002 1.998398495909e+002 1.998552439107e+002 1.998552448220e+002 1.997903949578e+002 1.996642537057e+002 1.995695041975e+002 1.976862093037e+002 1.987161171321e+002 1.989416801523e+002 1.991391523803e+002 1.967959008223e+002 1.981954223652e+002 1.994521058365e+002 1.994452355964e+002 1.984638535823e+002 1.998569308170e+002 1.984647099964e+002 1.979528033045e+002 1.985046940838e+002 1.995102460678e+002 1.996169617810e+002 1.997015198610e+002 1.998124324650e+002 1.997662912095e+002 1.978543505058e+002 1.975320142882e+002 1.971938243638e+002 1.990391253808e+002 1.992232943328e+002 1.985868082661e+002 1.988269067225e+002 1.998124289270e+002 1.997662742278e+002 1.988268941484e+002 1.990396044421e+002 1.997019103346e+002 1.992235047237e+002 1.996174650845e+002 1.995110314658e+002 1.975304342384e+002 1.993808480074e+002 1.993800836371e+002 1.967770480521e+002 1.980662387225e+002 1.967594041212e+002 1.985352027095e+002 1.982494510935e+002 1.998457574868e+002 1.998454927268e+002 1.983587370407e+002 1.983810202970e+002 1.982682171561e+002 1.994658068856e+002 1.992839407716e+002 1.993256697521e+002 1.994310096010e+002 1.991589497200e+002 1.989645303839e+002 1.987420113235e+002 1.995526944772e+002 1.974085134888e+002 1.977363905196e+002 1.997856856078e+002 1.997277580848e+002 1.996509175515e+002 1.997852376585e+002 1.974081925489e+002 1.997277613943e+002 1.977363277924e+002 1.987420164419e+002 1.989645351707e+002 1.991553615392e+002 1.996509201326e+002 1.995526960698e+002 1.969244021003e+002 1.965013469695e+002 1.998554270636e+002 1.968771477604e+002 1.993058530129e+002 1.993042140952e+002 1.973624247713e+002 1.973618523551e+002 1.997368134528e+002 1.997367368890e+002 1.998528631432e+002 1.966695013577e+002 1.964529702587e+002 1.970517315319e+002 1.967222063205e+002 1.998569594077e+002 1.985791192025e+002 1.998569775590e+002 1.984781969899e+002 1.965932916325e+002 1.998328293260e+002 1.998329036912e+002 1.995666434869e+002 1.996619915787e+002 1.976948536349e+002 1.991335344329e+002 1.987087851326e+002 1.989351973707e+002 1.997915878666e+002 1.968860927665e+002 1.968951940986e+002 1.964891364209e+002 1.984228182548e+002 1.980456550275e+002 1.964936980547e+002 1.969783251556e+002 1.972056901749e+002 1.981234456426e+002 1.969319705743e+002 1.998412196169e+002 1.998412201163e+002 1.980920361576e+002 1.983937676835e+002 1.998370856514e+002 1.979744324711e+002 1.984007833676e+002 1.983551516856e+002 1.997762558487e+002 1.971278439489e+002 1.998193846537e+002 1.987589565198e+002 1.989789224283e+002 1.991718626158e+002 1.994229590874e+002 1.975958516124e+002 1.996867348883e+002 1.979144687581e+002 1.995980380734e+002 1.994733611355e+002 1.998290814028e+002 1.968000811260e+002 1.983034664163e+002 1.982062997070e+002 1.980059017476e+002 1.965963120239e+002 1.998570059299e+002 1.986803040452e+002 1.998570070146e+002 1.987940356991e+002 1.964400403548e+002 1.970244827337e+002 1.982328831954e+002 1.981247650715e+002 1.998530171168e+002 1.978367077805e+002 1.985972869317e+002 1.968908780207e+002 1.984280721614e+002 1.966863356073e+002 1.995321663668e+002 1.996345431943e+002 1.997151562278e+002 1.977948186733e+002 1.974694917371e+002 1.997234079802e+002 1.998003670342e+002 1.996452556581e+002 1.997489338940e+002 1.995455911970e+002 1.974299752793e+002 1.977569566061e+002 1.972968373662e+002 1.986619055822e+002 1.990977770317e+002 1.988936296095e+002 1.992735656607e+002 1.998044338110e+002 1.997547144735e+002 1.972631992206e+002 1.993533101420e+002 1.986328688366e+002 1.988679081150e+002 1.990749661356e+002 1.992540398357e+002 1.993357861398e+002 1.993800886866e+002 1.992232733791e+002 1.988268897108e+002 1.990391229302e+002 1.985867982311e+002 1.998124352207e+002 1.997662756697e+002 1.997020641549e+002 1.995108799469e+002 1.996176618626e+002 1.971946527709e+002 1.975296848891e+002 1.978526590778e+002 1.980415489506e+002 1.969628825563e+002 1.998527436398e+002 1.964443724844e+002 1.993332209386e+002 1.992759578979e+002 1.991001534266e+002 1.988968022117e+002 1.986654130431e+002 1.997475821991e+002 1.997994570045e+002 1.973038032000e+002 1.997244055636e+002 1.996463033695e+002 1.995467577005e+002 1.974249126758e+002 1.977535381875e+002 1.982253224142e+002 1.998416256171e+002 1.981922308882e+002 1.998438931622e+002 1.993773526257e+002 1.993818567035e+002 1.992285171337e+002 1.990451178677e+002 1.988338575492e+002 1.985946120313e+002 1.998117171855e+002 1.997652280323e+002 1.996999561365e+002 1.996149552587e+002 1.995131140914e+002 1.975391045568e+002 1.995094206670e+002 1.988311914603e+002 1.990353570617e+002 1.992265155658e+002 1.996165800487e+002 1.997012219476e+002 1.978555913620e+002 1.997663704423e+002 1.975333339045e+002 1.998124984119e+002 1.971932584012e+002 1.967305314437e+002 1.997596356719e+002 1.972344668066e+002 1.998078607061e+002 1.988519375302e+002 1.992420903454e+002 1.990625102592e+002 1.986149099038e+002 1.974942534453e+002 1.997098528889e+002 1.978183806075e+002 1.996276932798e+002 1.995232905789e+002 1.993646972432e+002 1.964349014687e+002 1.998569835168e+002 1.986076914776e+002 1.998470930380e+002 1.998513421333e+002 1.998513400757e+002 1.981829427684e+002 1.982944604116e+002 1.968759573234e+002 1.972014566219e+002 1.998348782062e+002 1.964181687789e+002 1.998412015812e+002 1.998411129920e+002 1.970089278622e+002 1.994727081519e+002 1.995868758229e+002 1.979476057965e+002 1.996779682117e+002 1.976320694752e+002 1.991736816268e+002 1.989791844237e+002 1.987613526328e+002 1.994226408153e+002 1.998232752151e+002 1.970836326488e+002 1.997824664914e+002 1.980043114142e+002 1.984605478124e+002 1.981551701803e+002 1.965821399034e+002 1.964783931837e+002 1.998561563605e+002 1.973292863611e+002 1.998561560189e+002 1.972597333814e+002 1.985997361668e+002 1.978379672465e+002 1.985042430863e+002 1.966275925329e+002 1.998250671528e+002 1.968721412139e+002 1.981008308118e+002 1.983366679459e+002 1.981483083140e+002 1.968611784768e+002 1.965825770490e+002 1.967420277712e+002 1.979037970973e+002 1.965808067135e+002 1.967950914653e+002 1.981741188956e+002 1.964339682261e+002 1.965290916979e+002 1.982624835690e+002 1.980766152723e+002 1.983450627249e+002 1.981186927157e+002 1.998496672615e+002 1.965076389428e+002 1.971150621226e+002 1.993956738421e+002 1.994299392688e+002 1.998249372969e+002 1.997850596142e+002 1.998169660616e+002 1.997725987457e+002 1.996782537740e+002 1.995872366849e+002 1.976310460592e+002 1.994977774232e+002 1.994668316855e+002 1.985522475946e+002 1.984991878731e+002 1.987964436275e+002 1.987444254903e+002 1.989666588082e+002 1.990124552058e+002 1.992002122746e+002 1.991607159549e+002 1.966485311254e+002 1.998548123069e+002 1.998547908771e+002 1.998560630430e+002 1.998560636027e+002 1.969638574561e+002 1.998557201921e+002 1.992590151834e+002 1.990807718014e+002 1.988745573887e+002 1.986403467006e+002 1.993488172565e+002 1.994101341935e+002 1.994850688407e+002 1.995966561635e+002 1.979192269713e+002 1.996856526488e+002 1.976004145598e+002 1.997541291599e+002 1.972665440971e+002 1.998040290762e+002 1.998040179595e+002 1.997541124838e+002 1.998201192690e+002 1.996855830241e+002 1.995965675170e+0