<?xml version="1.0"?>
<VTKFile type="UnstructuredGrid" version="0.1" byte_order="LittleEndian">
  <UnstructuredGrid>
    <Piece NumberOfPoints="2604" NumberOfCells="4910">
      <Points>
        <DataArray type="Float64" NumberOfComponents="3" format="ascii">
          0.000000000000e+000 0.000000000000e+000 0.000000000000e+000
          2.000000000000e+002 0.000000000000e+000 0.000000000000e+000
          2.000000000000e+002 2.000000000000e+001 0.000000000000e+000
          0.000000000000e+000 2.000000000000e+001 0.000000000000e+000
          1.492537313427e+000 0.000000000000e+000 0.000000000000e+000
          2.985074626854e+000 0.000000000000e+000 0.000000000000e+000
          4.477611940281e+000 0.000000000000e+000 0.000000000000e+000
          5.970149253708e+000 0.000000000000e+000 0.000000000000e+000
          7.462686567135e+000 0.000000000000e+000 0.000000000000e+000
          8.955223880561e+000 0.000000000000e+000 0.000000000000e+000
          1.044776119399e+001 0.000000000000e+000 0.000000000000e+000
          1.194029850741e+001 0.000000000000e+000 0.000000000000e+000
          1.343283582084e+001 0.000000000000e+000 0.000000000000e+000
          1.492537313427e+001 0.000000000000e+000 0.000000000000e+000
          1.641791044770e+001 0.000000000000e+000 0.000000000000e+000
          1.791044776112e+001 0.000000000000e+000 0.000000000000e+000
          1.940298507455e+001 0.000000000000e+000 0.000000000000e+000
          2.089552238798e+001 0.000000000000e+000 0.000000000000e+000
          2.238805970141e+001 0.000000000000e+000 0.000000000000e+000
          2.388059701484e+001 0.000000000000e+000 0.000000000000e+000
          2.537313432826e+001 0.000000000000e+000 0.000000000000e+000
          2.686567164169e+001 0.000000000000e+000 0.000000000000e+000
          2.835820895511e+001 0.000000000000e+000 0.000000000000e+000
          2.985074626854e+001 0.000000000000e+000 0.000000000000e+000
          3.134328358196e+001 0.000000000000e+000 0.000000000000e+000
          3.283582089539e+001 0.000000000000e+000 0.000000000000e+000
          3.432835820881e+001 0.000000000000e+000 0.000000000000e+000
          3.582089552224e+001 0.000000000000e+000 0.000000000000e+000
          3.731343283566e+001 0.000000000000e+000 0.000000000000e+000
          3.880597014909e+001 0.000000000000e+000 0.000000000000e+000
          4.029850746251e+001 0.000000000000e+000 0.000000000000e+000
          4.179104477594e+001 0.000000000000e+000 0.000000000000e+000
          4.328358208936e+001 0.000000000000e+000 0.000000000000e+000
          4.477611940279e+001 0.000000000000e+000 0.000000000000e+000
          4.626865671621e+001 0.000000000000e+000 0.000000000000e+000
          4.776119402964e+001 0.000000000000e+000 0.000000000000e+000
          4.925373134306e+001 0.000000000000e+000 0.000000000000e+000
          5.074626865649e+001 0.000000000000e+000 0.000000000000e+000
          5.223880596991e+001 0.000000000000e+000 0.000000000000e+000
          5.373134328334e+001 0.000000000000e+000 0.000000000000e+000
          5.522388059676e+001 0.000000000000e+000 0.000000000000e+000
          5.671641791019e+001 0.000000000000e+000 0.000000000000e+000
          5.820895522361e+001 0.000000000000e+000 0.000000000000e+000
          5.970149253704e+001 0.000000000000e+000 0.000000000000e+000
          6.119402985046e+001 0.000000000000e+000 0.000000000000e+000
          6.268656716389e+001 0.000000000000e+000 0.000000000000e+000
          6.417910447732e+001 0.000000000000e+000 0.000000000000e+000
          6.567164179075e+001 0.000000000000e+000 0.000000000000e+000
          6.716417910418e+001 0.000000000000e+000 0.000000000000e+000
          6.865671641761e+001 0.000000000000e+000 0.000000000000e+000
          7.014925373104e+001 0.000000000000e+000 0.000000000000e+000
          7.164179104447e+001 0.000000000000e+000 0.000000000000e+000
          7.313432835790e+001 0.000000000000e+000 0.000000000000e+000
          7.462686567133e+001 0.000000000000e+000 0.000000000000e+000
          7.611940298476e+001 0.000000000000e+000 0.000000000000e+000
          7.761194029819e+001 0.000000000000e+000 0.000000000000e+000
          7.910447761162e+001 0.000000000000e+000 0.000000000000e+000
          8.059701492505e+001 0.000000000000e+000 0.000000000000e+000
          8.208955223848e+001 0.000000000000e+000 0.000000000000e+000
          8.358208955191e+001 0.000000000000e+000 0.000000000000e+000
          8.507462686534e+001 0.000000000000e+000 0.000000000000e+000
          8.656716417877e+001 0.000000000000e+000 0.000000000000e+000
          8.805970149220e+001 0.000000000000e+000 0.000000000000e+000
          8.955223880563e+001 0.000000000000e+000 0.000000000000e+000
          9.104477611907e+001 0.000000000000e+000 0.000000000000e+000
          9.253731343250e+001 0.000000000000e+000 0.000000000000e+000
          9.402985074593e+001 0.000000000000e+000 0.000000000000e+000
          9.552238805936e+001 0.000000000000e+000 0.000000000000e+000
          9.701492537279e+001 0.000000000000e+000 0.000000000000e+000
          9.850746268622e+001 0.000000000000e+000 0.000000000000e+000
          9.999999999965e+001 0.000000000000e+000 0.000000000000e+000
          1.014925373131e+002 0.000000000000e+000 0.000000000000e+000
          1.029850746265e+002 0.000000000000e+000 0.000000000000e+000
          1.044776119399e+002 0.000000000000e+000 0.000000000000e+000
          1.059701492534e+002 0.000000000000e+000 0.000000000000e+000
          1.074626865668e+002 0.000000000000e+000 0.000000000000e+000
          1.089552238802e+002 0.000000000000e+000 0.000000000000e+000
          1.104477611937e+002 0.000000000000e+000 0.000000000000e+000
          1.119402985071e+002 0.000000000000e+000 0.000000000000e+000
          1.134328358205e+002 0.000000000000e+000 0.000000000000e+000
          1.149253731340e+002 0.000000000000e+000 0.000000000000e+000
          1.164179104474e+002 0.000000000000e+000 0.000000000000e+000
          1.179104477608e+002 0.000000000000e+000 0.000000000000e+000
          1.194029850742e+002 0.000000000000e+000 0.000000000000e+000
          1.208955223877e+002 0.000000000000e+000 0.000000000000e+000
          1.223880597011e+002 0.000000000000e+000 0.000000000000e+000
          1.238805970145e+002 0.000000000000e+000 0.000000000000e+000
          1.253731343280e+002 0.000000000000e+000 0.000000000000e+000
          1.268656716414e+002 0.000000000000e+000 0.000000000000e+000
          1.283582089548e+002 0.000000000000e+000 0.000000000000e+000
          1.298507462683e+002 0.000000000000e+000 0.000000000000e+000
          1.313432835817e+002 0.000000000000e+000 0.000000000000e+000
          1.328358208952e+002 0.000000000000e+000 0.000000000000e+000
          1.343283582086e+002 0.000000000000e+000 0.000000000000e+000
          1.358208955220e+002 0.000000000000e+000 0.000000000000e+000
          1.373134328355e+002 0.000000000000e+000 0.000000000000e+000
          1.388059701489e+002 0.000000000000e+000 0.000000000000e+000
          1.402985074624e+002 0.000000000000e+000 0.000000000000e+000
          1.417910447758e+002 0.000000000000e+000 0.000000000000e+000
          1.432835820892e+002 0.000000000000e+000 0.000000000000e+000
          1.447761194027e+002 0.000000000000e+000 0.000000000000e+000
          1.462686567161e+002 0.000000000000e+000 0.000000000000e+000
          1.477611940296e+002 0.000000000000e+000 0.000000000000e+000
          1.492537313430e+002 0.000000000000e+000 0.000000000000e+000
          1.507462686564e+002 0.000000000000e+000 0.000000000000e+000
          1.522388059699e+002 0.000000000000e+000 0.000000000000e+000
          1.537313432833e+002 0.000000000000e+000 0.000000000000e+000
          1.552238805968e+002 0.000000000000e+000 0.000000000000e+000
          1.567164179102e+002 0.000000000000e+000 0.000000000000e+000
          1.582089552237e+002 0.000000000000e+000 0.000000000000e+000
          1.597014925371e+002 0.000000000000e+000 0.000000000000e+000
          1.611940298505e+002 0.000000000000e+000 0.000000000000e+000
          1.626865671640e+002 0.000000000000e+000 0.000000000000e+000
          1.641791044774e+002 0.000000000000e+000 0.000000000000e+000
          1.656716417909e+002 0.000000000000e+000 0.000000000000e+000
          1.671641791043e+002 0.000000000000e+000 0.000000000000e+000
          1.686567164177e+002 0.000000000000e+000 0.000000000000e+000
          1.701492537312e+002 0.000000000000e+000 0.000000000000e+000
          1.716417910446e+002 0.000000000000e+000 0.000000000000e+000
          1.731343283581e+002 0.000000000000e+000 0.000000000000e+000
          1.746268656715e+002 0.000000000000e+000 0.000000000000e+000
          1.761194029849e+002 0.000000000000e+000 0.000000000000e+000
          1.776119402984e+002 0.000000000000e+000 0.000000000000e+000
          1.791044776118e+002 0.000000000000e+000 0.000000000000e+000
          1.805970149253e+002 0.000000000000e+000 0.000000000000e+000
          1.820895522387e+002 0.000000000000e+000 0.000000000000e+000
          1.835820895521e+002 0.000000000000e+000 0.000000000000e+000
          1.850746268656e+002 0.000000000000e+000 0.000000000000e+000
          1.865671641790e+002 0.000000000000e+000 0.000000000000e+000
          1.880597014925e+002 0.000000000000e+000 0.000000000000e+000
          1.895522388059e+002 0.000000000000e+000 0.000000000000e+000
          1.910447761194e+002 0.000000000000e+000 0.000000000000e+000
          1.925373134328e+002 0.000000000000e+000 0.000000000000e+000
          1.940298507462e+002 0.000000000000e+000 0.000000000000e+000
          1.955223880597e+002 0.000000000000e+000 0.000000000000e+000
          1.970149253731e+002 0.000000000000e+000 0.000000000000e+000
          1.985074626866e+002 0.000000000000e+000 0.000000000000e+000
          2.000000000000e+002 1.428571428570e+000 0.000000000000e+000
          2.000000000000e+002 2.857142857140e+000 0.000000000000e+000
[...]
      <PointData Scalars="MEAN_PRESSURE">
        <DataArray type="Float64" Name="MEAN_PRESSURE" format="ascii">
          2.000000000000e+002 1.993010657094e+002 1.993010641510e+002 2.000000000000e+002 1.994610127229e+002 1.984003940110e+002 1.976992485212e+002 1.972252778556e+002 1.969255469628e+002 1.967539095737e+002 1.966643331632e+002 1.966312294048e+002 1.966318766792e+002 1.966520998039e+002 1.966822780528e+002 1.967171707862e+002 1.967536641697e+002 1.967902515346e+002 1.968263385490e+002 1.968617744407e+002 1.968966357442e+002 1.969310111222e+002 1.969650647857e+002 1.969988973725e+002 1.970325779723e+002 1.970661481067e+002 1.970996363759e+002 1.971330537391e+002 1.971664006860e+002 1.971996768644e+002 1.972328771338e+002 1.972659971369e+002 1.972990269960e+002 1.973319614080e+002 1.973647929617e+002 1.973975133821e+002 1.974301183717e+002 1.974625978398e+002 1.974949476299e+002 1.975271627745e+002 1.975592326724e+002 1.975911487980e+002 1.976229119786e+002 1.976545116279e+002 1.976859443109e+002 1.977172025969e+002 1.977482842351e+002 1.977791729832e+002 1.978098779209e+002 1.978403814165e+002 1.978706805838e+002 1.979007724040e+002 1.979306557050e+002 1.979603082543e+002 1.979897420971e+002 1.980189469283e+002 1.980479202708e+002 1.980766483992e+002 1.981051301065e+002 1.981333740462e+002 1.981613502960e+002 1.981890686213e+002 1.982165230898e+002 1.982437142368e+002 1.982706300279e+002 1.982972683503e+002 1.983236258669e+002 1.983496953645e+002 1.983754779978e+002 1.984009629824e+002 1.984261562363e+002 1.984510416262e+002 1.984756254182e+002 1.984998985664e+002 1.985238574299e+002 1.985475032889e+002 1.985708255853e+002 1.985938308606e+002 1.986165069942e+002 1.986388551278e+002 1.986608659213e+002 1.986825469204e+002 1.987038859675e+002 1.987248870147e+002 1.987455418163e+002 1.987658493565e+002 1.987858094149e+002 1.988054172719e+002 1.988246706224e+002 1.988435678473e+002 1.988621065862e+002 1.988802852716e+002 1.988981019243e+002 1.989155517601e+002 1.989326310880e+002 1.989493461868e+002 1.989656863112e+002 1.989816543684e+002 1.989972491288e+002 1.990124701884e+002 1.990273120720e+002 1.990417713661e+002 1.990558548742e+002 1.990695518870e+002 1.990828659046e+002 1.990957961932e+002 1.991083428348e+002 1.991205006533e+002 1.991322665774e+002 1.991436479731e+002 1.991546342042e+002 1.991652290108e+002 1.991754329179e+002 1.991852472362e+002 1.991946644824e+002 1.992036829377e+002 1.992123110354e+002 1.992205379258e+002 1.992283676690e+002 1.992358006613e+002 1.992428388762e+002 1.992494777359e+002 1.992557134774e+002 1.992615489353e+002 1.992669831061e+002 1.992720125626e+002 1.992766452464e+002 1.992808805310e+002 1.992847073048e+002 1.992881401854e+002 1.992911758708e+002 1.992937881190e+002 1.992960038957e+002 1.992978184265e+002 1.992992523719e+002 1.993002212174e+002 1.993008448029e+002 1.993010441291e+002 1.993010240342e+002 1.993010676751e+002 1.993010589186e+002 1.993010546274e+002 1.993010467524e+002 1.993010415847e+002 1.993010451679e+002 1.993010455813e+002 1.993010357258e+002 1.993010629624e+002 1.993010215598e+002 1.993010424087e+002 1.993008433992e+002 1.993002201026e+002 1.992992514071e+002 1.992978174745e+002 1.992960031611e+002 1.992937886635e+002 1.992911776541e+002 1.992881422219e+002 1.992847092119e+002 1.992808823063e+002 1.992766456775e+002 1.992720133128e+002 1.992669828710e+002 1.992615476442e+002 1.992557125199e+002 1.992494758137e+002 1.992428364773e+002 1.992358058166e+002 1.992283719010e+002 1.992205390010e+002 1.992123107772e+002 1.992036842132e+002 1.991946611247e+002 1.991852466793e+002 1.991754358033e+002 1.991652329024e+002 1.991546341812e+002 1.991436467671e+002 1.991322643128e+002 1.991204993268e+002 1.991083410337e+002 1.990957968950e+002 1.990828672295e+002 1.990695492534e+002 1.990558531677e+002 1.990417696870e+002 1.990273116119e+002 1.990124691411e+002 1.989972501304e+002 1.989816554861e+002 1.989656834404e+002 1.989493445433e+002 1.989326299616e+002 1.989155519300e+002 1.988981016639e+002 1.988802830634e+002 1.988621075631e+002 1.988435685344e+002 1.988246709529e+002 1.988054172762e+002 1.987858104720e+002 1.987658530220e+002 1.987455448017e+002 1.987248868164e+002 1.987038894664e+002 1.986825471177e+002 1.986608666852e+002 1.986388519712e+002 1.986165082366e+002 1.985938305656e+002 1.985708291488e+002 1.985475047321e+002 1.985238585499e+002 1.984998965494e+002 1.984756233151e+002 1.984510428448e+002 1.984261550634e+002 1.984009653414e+002 1.983754767593e+002 1.983496952748e+002 1.983236235692e+002 1.982972669888e+002 1.982706303525e+002 1.982437146600e+002 1.982165258105e+002 1.981890675857e+002 1.981613463425e+002 1.981333654530e+002 1.981051305492e+002 1.980766478651e+002 1.980479188381e+002 1.980189494555e+002 1.979897439098e+002 1.979603092064e+002 1.979306491206e+002 1.979007705769e+002 1.978706785502e+002 1.978403738877e+002 1.978098721895e+002 1.977791721787e+002 1.977482781279e+002 1.977172004567e+002 1.976859377225e+002 1.976545011898e+002 1.976228982702e+002 1.975911307975e+002 1.975592063235e+002 1.975271317196e+002 1.974949114833e+002 1.974625510203e+002 1.974300592817e+002 1.973974389255e+002 1.973646975648e+002 1.973318411579e+002 1.972988756742e+002 1.972658052663e+002 1.972326348763e+002 1.971993705224e+002 1.971660123734e+002 1.971325622690e+002 1.970990166370e+002 1.970653658092e+002 1.970315874629e+002 1.969976449720e+002 1.969634782914e+002 1.969289959676e+002 1.968940741759e+002 1.968585482274e+002 1.968222807189e+002 1.967851313759e+002 1.967472481635e+002 1.967091627907e+002 1.966723376701e+002 1.966396327361e+002 1.966170132659e+002 1.966137967846e+002 1.966448633199e+002 1.967292452473e+002 1.969029405700e+002 1.972050213435e+002 1.976769985315e+002 1.983857678519e+002 1.994427898763e+002 2.000000000000e+002 2.000000000000e+002 2.000000000000e+002 2.000000000000e+002 2.000000000000e+002 2.000000000000e+002 2.000000000000e+002 2.000000000000e+002 2.000000000000e+002 2.000000000000e+002 2.000000000000e+002 2.000000000000e+002 2.000000000000e+002 1.992919720842e+002 1.966758224456e+002 1.992644875930e+002 1.992166297981e+002 1.991484954039e+002 1.990618869769e+002 1.989565319492e+002 1.969471565131e+002 1.988341562378e+002 1.971849513109e+002 1.974158361285e+002 1.976426578551e+002 1.979725421969e+002 1.981752338521e+002 1.983626152667e+002 1.985357126647e+002 1.986932501540e+002 1.967350221037e+002 1.978098763679e+002 1.987658447692e+002 1.987649198181e+002 1.986165075767e+002 1.984510420748e+002 1.982706309764e+002 1.980766495734e+002 1.992438738289e+002 1.991867005039e+002 1.991097814403e+002 1.980766448621e+002 1.982658222067e+002 1.984530372391e+002 1.986124613197e+002 1.990142256657e+002 1.988980948420e+002 1.970642812043e+002 1.972951058960e+002 1.975307740577e+002 1.988989195310e+002 1.990126142154e+002 1.991084599610e+002 1.991852369948e+002 1.992428288145e+002 1.975268086874e+002 1.972985733795e+002 1.970655399438e+002 1.992804574342e+002 1.992802032082e+002 1.977438461159e+002 1.978787505204e+002 1.966427514132e+002 1.968279901769e+002 1.992978781637e+002 1.972170948739e+002 1.992979284199e+002 1.972155695558e+002 1.966329806299e+002 1.968565291468e+002 1.977100936128e+002 1.979050481688e+002 1.992643210554e+002 1.986932530633e+002 1.992164672913e+002 1.985357204541e+002 1.983626230116e+002 1.981752399153e+002 1.979813017123e+002 1.988339738142e+002 1.991493764114e+002 1.990639627144e+002 1.989590119889e+002 1.971823808362e+002 1.974109141395e+002 1.988343392171e+002 1.989575546410e+002 1.990627440952e+002 1.991491829822e+002 1.981751903540e+002 1.983625754900e+002 1.985356740964e+002 1.992164673459e+002 1.986936377697e+002 1.992643143800e+002 1.976387237470e+002 1.974137717482e+002 1.971827505794e+002 1.969465302355e+002 1.992908286768e+002 1.992910176315e+002 1.966411638352e+002 1.969655369645e+002 1.979957168841e+002 1.976144725020e+002 1.992993898107e+002 1.977549105806e+002 1.967387949493e+002 1.966862802159e+002 1.967326666890e+002 1.977922988821e+002 1.977278157941e+002 1.978916001822e+002 1.966327524717e+002 1.968334554903e+002 1.978105668011e+002 1.992835432903e+002 1.991193240053e+002 1.991757854404e+002 1.990258742833e+002 1.992360502117e+002 1.989138435580e+002 1.986351052073e+002 1.982927969060e+002 1.981003493190e+002 1.984732238406e+002 1.970980835623e+002 1.974980731396e+002 1.972691294628e+002 1.987475183286e+002 1.978098738337e+002 1.993000334452e+002 1.982483917111e+002 1.993000334179e+002 1.982199307573e+002 1.986468017461e+002 1.984843830654e+002 1.983067747211e+002 1.981153116651e+002 1.988737737445e+002 1.987373168441e+002 1.987928932810e+002 1.989916707127e+002 1.975707071167e+002 1.990911774436e+002 1.973436807102e+002 1.991717933569e+002 1.971111356540e+002 1.992331592304e+002 1.992328762401e+002 1.992522096095e+002 1.991713996227e+002 1.991981263334e+002 1.990899774411e+002 1.991243106926e+002 1.989902207054e+002 1.990319899265e+002 1.971161627837e+002 1.989209618156e+002 1.988737226098e+002 1.973468613054e+002 1.972553321450e+002 1.981154586672e+002 1.983078495679e+002 1.984863322448e+002 1.982349238986e+002 1.984179096229e+002 1.986458159475e+002 1.985864012377e+002 1.974926200607e+002 1.987929453137e+002 1.987412138416e+002 1.992517633771e+002 1.970194708608e+002 1.991965493937e+002 1.972588344624e+002 1.991230050451e+002 1.974881032094e+002 1.990303831567e+002 1.980328365168e+002 1.982312283601e+002 1.984145933189e+002 1.985828670762e+002 1.989191745147e+002 1.967183770320e+002 1.992747467869e+002 1.992745407178e+002 1.979107627611e+002 1.977034299630e+002 1.968751010259e+002 1.987911962889e+002 1.984186480539e+002 1.985874624821e+002 1.982361814286e+002 1.980334255359e+002 1.970220605335e+002 1.973409155744e+002 1.992513701066e+002 1.975687729941e+002 1.991971639652e+002 1.990922853049e+002 1.988753393017e+002 1.989930082697e+002 1.970317560932e+002 1.992848472523e+002 1.992848465192e+002 1.978577205618e+002 1.966172577468e+002 1.992751835747e+002 1.988071705978e+002 1.988607283134e+002 1.989804463974e+002 1.975917105337e+002 1.990818614472e+002 1.973672352025e+002 1.982144844466e+002 1.983990697464e+002 1.985690976258e+002 1.992558281963e+002 1.969974236214e+002 1.992043570678e+002 1.968091977108e+002 1.980214136420e+002 1.992959107252e+002 1.992956628743e+002 1.992714188203e+002 1.980516016488e+002 1.975552545076e+002 1.979341527732e+002 1.976812934668e+002 1.968943219902e+002 1.969002910435e+002 1.966135370055e+002 1.966642467302e+002 1.969009982772e+002 1.986598313107e+002 1.984991351726e+002 1.983227933076e+002 1.981324758649e+002 1.991657705545e+002 1.971309938495e+002 1.992287807211e+002 1.987240303275e+002 1.989321734615e+002 1.991648142977e+002 1.990423831640e+002 1.992280702635e+002 1.991327600473e+002 1.986624361942e+002 1.984990682182e+002 1.983247165036e+002 1.981345375255e+002 1.971343092003e+002 1.974635066979e+002 1.972314189304e+002 1.972313168124e+002 1.991327521912e+002 1.974612066640e+002 1.990423643503e+002 1.989333328516e+002 1.987240139031e+002 1.993001362396e+002 1.993001959172e+002 1.983400943061e+002 1.982343366554e+002 1.992963642054e+002 1.969485429249e+002 1.992881119725e+002 1.992886728248e+002 1.967596093065e+002 1.992943694541e+002 1.966363279294e+002 1.969870623532e+002 1.976732745775e+002 1.979432316700e+002 1.969203064895e+002 1.966279062090e+002 1.976519251661e+002 1.967927874740e+002 1.967865922486e+002 1.979639511749e+002 1.966929063859e+002 1.977306313803e+002 1.978544170642e+002 1.966686365771e+002 1.973571448684e+002 1.988673717927e+002 1.989853226567e+002 1.990859133075e+002 1.992026884178e+002 1.992550862909e+002 1.987998386674e+002 1.980250851265e+002 1.982221130064e+002 1.984061451703e+002 1.985755630703e+002 1.977636532742e+002 1.967928867095e+002 1.978607187466e+002 1.977552380766e+002 1.992726377312e+002 1.992936149122e+002 1.970069140190e+002 1.975767094939e+002 1.968057037103e+002 1.971079411606e+002 1.992974365449e+002 1.966831879700e+002 1.986815262149e+002 1.985227292873e+002 1.983484684877e+002 1.981600301316e+002 1.988431069556e+002 1.988251249881e+002 1.987052064826e+002 1.989664326621e+002 1.990701737135e+002 1.976214078720e+002 1.991551288490e+002 1.973959031083e+002 1.992209026857e+002 1.971644562744e+002 1.992614084622e+002 1.992206222718e+002 1.991553031239e+002 1.990705895944e+002 1.989669290579e+002 1.971642903686e+002 1.973949579722e+002 1.981610470791e+002 1.983482638751e+002 1.985225418419e+002 1.992612748320e+002 1.969651433456e+002 1.979925325626e+002 1.992647272865e+002 1.992896474340e+002 1.992896501080e+002 1.969814471583e+002 1.968919089517e+002 1.966232897816e+002 1.978431682805e+002 1.992465656058e+002 1.991905157091e+002 1.991014230727e+002 1.990040661374e+002 1.988866806760e+002 1.970469900794e+002 1.973172335295e+002 1.975449572205e+002 1.986046872886e+002 1.982565872284e+002 1.980618945336e+002 1.984350714609e+002 1.987787279264e+002 1.992781422507e+002 1.992983654070e+002 1.992983666300e+002 1.992150589257e+002 1.990649326736e+002 1.989601697236e+002 1.974085894769e+002 1.981799482870e+002 1.983670013151e+002 1.985397340095e+002 1.973610826857e+002 1.977772311956e+002 1.988376816262e+002 1.988307298762e+002 1.979806267325e+002 1.993005996652e+002 1.988598492963e+002 1.975992613640e+002 1.980122970880e+002 1.988974385338e+002 1.990119032356e+002 1.991078753001e+002 1.992428313973e+002 1.991852617168e+002 1.975283243773e+002 1.973001056750e+002 1.970653888237e+002 1.984510405814e+002 1.986165065417e+002 1.980766451194e+002 1.982706283132e+002 1.992428272172e+002 1.991852405776e+002 1.982706223020e+002 1.984514648116e+002 1.991083316084e+002 1.986167077982e+002 1.990124601817e+002 1.988982584769e+002 1.972990197132e+002 1.987665937650e+002 1.987658438248e+002 1.967703355268e+002 1.976818718886e+002 1.967576136209e+002 1.980361081582e+002 1.978175614485e+002 1.992858685489e+002 1.992855214283e+002 1.979000464002e+002 1.979170239669e+002 1.978316357644e+002 1.988516145749e+002 1.986732275160e+002 1.987129946880e+002 1.988164016066e+002 1.985576091665e+002 1.983865143553e+002 1.982009517567e+002 1.989421734660e+002 1.972140101111e+002 1.974441533653e+002 1.992091921003e+002 1.991387782802e+002 1.990498186068e+002 1.992086339084e+002 1.972137492612e+002 1.991387816395e+002 1.974441026121e+002 1.982009540713e+002 1.983865167043e+002 1.985543635846e+002 1.990498209275e+002 1.989421746523e+002 1.974865718111e+002 1.966130868379e+002 1.992986078847e+002 1.974421833536e+002 1.986940335999e+002 1.986924721682e+002 1.971820074451e+002 1.971815923519e+002 1.991495816757e+002 1.991494895867e+002 1.992952184088e+002 1.966917135695e+002 1.967461050649e+002 1.969672872969e+002 1.967295476246e+002 1.993006375706e+002 1.989568657865e+002 1.993006616133e+002 1.988829928580e+002 1.966460637951e+002 1.992690169400e+002 1.992691133620e+002 1.989570964443e+002 1.990623598233e+002 1.974147033246e+002 1.985346807590e+002 1.981740209169e+002 1.983614871298e+002 1.992165499590e+002 1.968504162855e+002 1.968572428019e+002 1.966213506538e+002 1.979490145921e+002 1.976668059198e+002 1.966288708170e+002 1.969159045938e+002 1.970736833925e+002 1.977239202654e+002 1.968832129276e+002 1.992799299120e+002 1.992799305045e+002 1.977007962212e+002 1.979267591798e+002 1.992745425148e+002 1.976149375084e+002 1.979321283575e+002 1.978973199755e+002 1.991975108220e+002 1.970198599181e+002 1.992517031947e+002 1.982147589889e+002 1.983988642908e+002 1.985693299414e+002 1.988083349284e+002 1.973448819307e+002 1.990907109993e+002 1.975715639596e+002 1.989911077123e+002 1.988593357530e+002 1.992641694923e+002 1.967876099604e+002 1.978581736409e+002 1.977853282086e+002 1.976378087598e+002 1.966461832558e+002 1.993006992188e+002 1.990318262192e+002 1.993007006803e+002 1.991139631838e+002 1.968197931339e+002 1.969482683419e+002 1.978051655098e+002 1.977248906270e+002 1.992954217585e+002 1.975156809539e+002 1.980849246476e+002 1.968540256463e+002 1.979530554854e+002 1.967043820753e+002 1.989204208539e+002 1.990314391544e+002 1.991238656438e+002 1.974857407667e+002 1.972564318612e+002 1.991336160298e+002 1.992275614952e+002 1.990434423776e+002 1.991641538996e+002 1.989346178395e+002 1.972289290424e+002 1.974587697908e+002 1.971366059066e+002 1.981363268914e+002 1.985027297707e+002 1.983263304507e+002 1.986634362721e+002 1.992326916139e+002 1.991711538552e+002 1.971133057478e+002 1.987397001106e+002 1.981131597536e+002 1.983047640686e+002 1.984825299901e+002 1.986451181948e+002 1.987227339158e+002 1.987658471091e+002 1.986164942270e+002 1.982706201197e+002 1.984510393722e+002 1.980766407084e+002 1.992428345552e+002 1.991852420671e+002 1.991085112879e+002 1.988980980582e+002 1.990126779455e+002 1.970660309360e+002 1.972984881287e+002 1.975271095418e+002 1.976638113950e+002 1.969052893170e+002 1.992950606921e+002 1.968161689049e+002 1.987202627063e+002 1.986656912508e+002 1.985048434393e+002 1.983290043361e+002 1.981391373443e+002 1.991625233663e+002 1.992264168328e+002 1.971413945103e+002 1.991348012642e+002 1.990446224570e+002 1.989358605688e+002 1.972253991752e+002 1.974563388156e+002 1.977995183757e+002 1.992804605204e+002 1.977748604796e+002 1.992834259402e+002 1.987631643847e+002 1.987675831449e+002 1.986213492931e+002 1.984562870448e+002 1.982763962474e+002 1.980828119390e+002 1.992419216156e+002 1.991839603170e+002 1.991060514211e+002 1.990096866275e+002 1.989004313300e+002 1.973050861807e+002 1.988965767789e+002 1.982741809622e+002 1.984477505545e+002 1.986194906521e+002 1.990114825899e+002 1.991075286018e+002 1.975292159969e+002 1.991853595786e+002 1.973010320318e+002 1.992429157351e+002 1.970650078895e+002 1.967360716472e+002 1.991771349860e+002 1.970934760412e+002 1.992370270329e+002 1.982914293098e+002 1.986339609671e+002 1.984715444436e+002 1.980988858849e+002 1.972737170619e+002 1.991176306323e+002 1.975025715819e+002 1.990238054034e+002 1.989110846193e+002 1.987507851251e+002 1.966972492986e+002 1.993006695173e+002 1.989723346958e+002 1.992876209747e+002 1.992932116945e+002 1.992932090277e+002 1.977679566915e+002 1.978513841149e+002 1.968429773215e+002 1.970707544205e+002 1.992716743904e+002 1.967035329658e+002 1.992799067346e+002 1.992797910266e+002 1.969375923051e+002 1.988586669432e+002 1.989789421088e+002 1.975954976885e+002 1.990806100511e+002 1.973703669135e+002 1.985709896296e+002 1.983990946556e+002 1.982167197138e+002 1.988080188973e+002 1.992566913027e+002 1.969893543937e+002 1.992051926947e+002 1.976366437269e+002 1.979780669907e+002 1.977473553657e+002 1.966426198109e+002 1.966402774997e+002 1.992995734811e+002 1.979033630327e+002 1.992995730473e+002 1.978476129443e+002 1.980868568806e+002 1.975165832171e+002 1.980119445742e+002 1.966657384808e+002 1.992589951443e+002 1.974321996131e+002 1.977072648499e+002 1.978832855213e+002 1.977422801743e+002 1.968322720561e+002 1.966382919260e+002 1.967444328729e+002 1.975638703198e+002 1.966371821578e+002 1.967840461676e+002 1.977614070097e+002 1.966435224887e+002 1.966241100883e+002 1.978273346634e+002 1.976894803126e+002 1.978896503934e+002 1.977204109203e+002 1.992910051714e+002 1.969308584512e+002 1.970111554400e+002 1.987811978748e+002 1.988153256600e+002 1.992588276611e+002 1.992084122638e+002 1.992486091341e+002 1.991930009918e+002 1.990809337550e+002 1.989793282877e+002 1.973696466026e+002 1.988844756717e+002 1.988526588344e+002 1.980494546205e+002 1.980080191273e+002 1.982454826647e+002 1.982029144151e+002 1.983883365124e+002 1.984278252360e+002 1.985952384971e+002 1.985592078379e+002 1.971838589890e+002 1.992977943058e+002 1.992977660492e+002 1.992994498501e+002 1.992994506138e+002 1.975487473390e+002 1.992989958566e+002 1.986497663951e+002 1.984876502227e+002 1.983103196032e+002 1.981191071132e+002 1.987353337196e+002 1.987955394325e+002 1.988713534940e+002 1.989895940715e+002 1.975749931109e+002 1.990894583990e+002 1.973480838693e+002 1.991704418443e+002 1.971156024856e+002 1.992321791947e+002 1.992321648212e+002 1.991704209555e+002 1.992526431662e+002 1.990893782352e+002 1.989894977151e+0