<?xml version="1.0"?>
<VTKFile type="UnstructuredGrid" version="0.1" byte_order="LittleEndian">
  <UnstructuredGrid>
    <Piece NumberOfPoints="2604" NumberOfCells="4910">
      <Points>
        <DataArray type="Float64" NumberOfComponents="3" format="ascii">
          0.000000000000e+000 0.000000000000e+000 0.000000000000e+000
          2.000000000000e+002 0.000000000000e+000 0.000000000000e+000
          2.000000000000e+002 2.000000000000e+001 0.000000000000e+000
          0.000000000000e+000 2.000000000000e+001 0.000000000000e+000
          1.492537313427e+000 0.000000000000e+000 0.000000000000e+000
          2.985074626854e+000 0.000000000000e+000 0.000000000000e+000
          4.477611940281e+000 0.000000000000e+000 0.000000000000e+000
          5.970149253708e+000 0.000000000000e+000 0.000000000000e+000
          7.462686567135e+000 0.000000000000e+000 0.000000000000e+000
          8.955223880561e+000 0.000000000000e+000 0.000000000000e+000
          1.044776119399e+001 0.000000000000e+000 0.000000000000e+000
          1.194029850741e+001 0.000000000000e+000 0.000000000000e+000
          1.343283582084e+001 0.000000000000e+000 0.000000000000e+000
          1.492537313427e+001 0.000000000000e+000 0.000000000000e+000
          1.641791044770e+001 0.000000000000e+000 0.000000000000e+000
          1.791044776112e+001 0.000000000000e+000 0.000000000000e+000
          1.940298507455e+001 0.000000000000e+000 0.000000000000e+000
          2.089552238798e+001 0.000000000000e+000 0.000000000000e+000
          2.238805970141e+001 0.000000000000e+000 0.000000000000e+000
          2.388059701484e+001 0.000000000000e+000 0.000000000000e+000
          2.537313432826e+001 0.000000000000e+000 0.000000000000e+000
          2.686567164169e+001 0.000000000000e+000 0.000000000000e+000
          2.835820895511e+001 0.000000000000e+000 0.000000000000e+000
          2.985074626854e+001 0.000000000000e+000 0.000000000000e+000
          3.134328358196e+001 0.000000000000e+000 0.000000000000e+000
          3.283582089539e+001 0.000000000000e+000 0.000000000000e+000
          3.432835820881e+001 0.000000000000e+000 0.000000000000e+000
          3.582089552224e+001 0.000000000000e+000 0.000000000000e+000
          3.731343283566e+001 0.000000000000e+000 0.000000000000e+000
          3.880597014909e+001 0.000000000000e+000 0.000000000000e+000
          4.029850746251e+001 0.000000000000e+000 0.000000000000e+000
          4.179104477594e+001 0.000000000000e+000 0.000000000000e+000
          4.328358208936e+001 0.000000000000e+000 0.000000000000e+000
          4.477611940279e+001 0.000000000000e+000 0.000000000000e+000
          4.626865671621e+001 0.000000000000e+000 0.000000000000e+000
          4.776119402964e+001 0.000000000000e+000 0.000000000000e+000
          4.925373134306e+001 0.000000000000e+000 0.000000000000e+000
          5.074626865649e+001 0.000000000000e+000 0.000000000000e+000
          5.223880596991e+001 0.000000000000e+000 0.000000000000e+000
          5.373134328334e+001 0.000000000000e+000 0.000000000000e+000
          5.522388059676e+001 0.000000000000e+000 0.000000000000e+000
          5.671641791019e+001 0.000000000000e+000 0.000000000000e+000
          5.820895522361e+001 0.000000000000e+000 0.000000000000e+000
          5.970149253704e+001 0.000000000000e+000 0.000000000000e+000
          6.119402985046e+001 0.000000000000e+000 0.000000000000e+000
          6.268656716389e+001 0.000000000000e+000 0.000000000000e+000
          6.417910447732e+001 0.000000000000e+000 0.000000000000e+000
          6.567164179075e+001 0.000000000000e+000 0.000000000000e+000
          6.716417910418e+001 0.000000000000e+000 0.000000000000e+000
          6.865671641761e+001 0.000000000000e+000 0.000000000000e+000
          7.014925373104e+001 0.000000000000e+000 0.000000000000e+000
          7.164179104447e+001 0.000000000000e+000 0.000000000000e+000
          7.313432835790e+001 0.000000000000e+000 0.000000000000e+000
          7.462686567133e+001 0.000000000000e+000 0.000000000000e+000
          7.611940298476e+001 0.000000000000e+000 0.000000000000e+000
          7.761194029819e+001 0.000000000000e+000 0.000000000000e+000
          7.910447761162e+001 0.000000000000e+000 0.000000000000e+000
          8.059701492505e+001 0.000000000000e+000 0.000000000000e+000
          8.208955223848e+001 0.000000000000e+000 0.000000000000e+000
          8.358208955191e+001 0.000000000000e+000 0.000000000000e+000
          8.507462686534e+001 0.000000000000e+000 0.000000000000e+000
          8.656716417877e+001 0.000000000000e+000 0.000000000000e+000
          8.805970149220e+001 0.000000000000e+000 0.000000000000e+000
          8.955223880563e+001 0.000000000000e+000 0.000000000000e+000
          9.104477611907e+001 0.000000000000e+000 0.000000000000e+000
          9.253731343250e+001 0.000000000000e+000 0.000000000000e+000
          9.402985074593e+001 0.000000000000e+000 0.000000000000e+000
          9.552238805936e+001 0.000000000000e+000 0.000000000000e+000
          9.701492537279e+001 0.000000000000e+000 0.000000000000e+000
          9.850746268622e+001 0.000000000000e+000 0.000000000000e+000
          9.999999999965e+001 0.000000000000e+000 0.000000000000e+000
          1.014925373131e+002 0.000000000000e+000 0.000000000000e+000
          1.029850746265e+002 0.000000000000e+000 0.000000000000e+000
          1.044776119399e+002 0.000000000000e+000 0.000000000000e+000
          1.059701492534e+002 0.000000000000e+000 0.000000000000e+000
          1.074626865668e+002 0.000000000000e+000 0.000000000000e+000
          1.089552238802e+002 0.000000000000e+000 0.000000000000e+000
          1.104477611937e+002 0.000000000000e+000 0.000000000000e+000
          1.119402985071e+002 0.000000000000e+000 0.000000000000e+000
          1.134328358205e+002 0.000000000000e+000 0.000000000000e+000
          1.149253731340e+002 0.000000000000e+000 0.000000000000e+000
          1.164179104474e+002 0.000000000000e+000 0.000000000000e+000
          1.179104477608e+002 0.000000000000e+000 0.000000000000e+000
          1.194029850742e+002 0.000000000000e+000 0.000000000000e+000
          1.208955223877e+002 0.000000000000e+000 0.000000000000e+000
          1.223880597011e+002 0.000000000000e+000 0.000000000000e+000
          1.238805970145e+002 0.000000000000e+000 0.000000000000e+000
          1.253731343280e+002 0.000000000000e+000 0.000000000000e+000
          1.268656716414e+002 0.000000000000e+000 0.000000000000e+000
          1.283582089548e+002 0.000000000000e+000 0.000000000000e+000
          1.298507462683e+002 0.000000000000e+000 0.000000000000e+000
          1.313432835817e+002 0.000000000000e+000 0.000000000000e+000
          1.328358208952e+002 0.000000000000e+000 0.000000000000e+000
          1.343283582086e+002 0.000000000000e+000 0.000000000000e+000
          1.358208955220e+002 0.000000000000e+000 0.000000000000e+000
          1.373134328355e+002 0.000000000000e+000 0.000000000000e+000
          1.388059701489e+002 0.000000000000e+000 0.000000000000e+000
          1.402985074624e+002 0.000000000000e+000 0.000000000000e+000
          1.417910447758e+002 0.000000000000e+000 0.000000000000e+000
          1.432835820892e+002 0.000000000000e+000 0.000000000000e+000
          1.447761194027e+002 0.000000000000e+000 0.000000000000e+000
          1.462686567161e+002 0.000000000000e+000 0.000000000000e+000
          1.477611940296e+002 0.000000000000e+000 0.000000000000e+000
          1.492537313430e+002 0.000000000000e+000 0.000000000000e+000
          1.507462686564e+002 0.000000000000e+000 0.000000000000e+000
          1.522388059699e+002 0.000000000000e+000 0.000000000000e+000
          1.537313432833e+002 0.000000000000e+000 0.000000000000e+000
          1.552238805968e+002 0.000000000000e+000 0.000000000000e+000
          1.567164179102e+002 0.000000000000e+000 0.000000000000e+000
          1.582089552237e+002 0.000000000000e+000 0.000000000000e+000
          1.597014925371e+002 0.000000000000e+000 0.000000000000e+000
          1.611940298505e+002 0.000000000000e+000 0.000000000000e+000
          1.626865671640e+002 0.000000000000e+000 0.000000000000e+000
          1.641791044774e+002 0.000000000000e+000 0.000000000000e+000
          1.656716417909e+002 0.000000000000e+000 0.000000000000e+000
          1.671641791043e+002 0.000000000000e+000 0.000000000000e+000
          1.686567164177e+002 0.000000000000e+000 0.000000000000e+000
          1.701492537312e+002 0.000000000000e+000 0.000000000000e+000
          1.716417910446e+002 0.000000000000e+000 0.000000000000e+000
          1.731343283581e+002 0.000000000000e+000 0.000000000000e+000
          1.746268656715e+002 0.000000000000e+000 0.000000000000e+000
          1.761194029849e+002 0.000000000000e+000 0.000000000000e+000
          1.776119402984e+002 0.000000000000e+000 0.000000000000e+000
          1.791044776118e+002 0.000000000000e+000 0.000000000000e+000
          1.805970149253e+002 0.000000000000e+000 0.000000000000e+000
          1.820895522387e+002 0.000000000000e+000 0.000000000000e+000
          1.835820895521e+002 0.000000000000e+000 0.000000000000e+000
          1.850746268656e+002 0.000000000000e+000 0.000000000000e+000
          1.865671641790e+002 0.000000000000e+000 0.000000000000e+000
          1.880597014925e+002 0.000000000000e+000 0.000000000000e+000
          1.895522388059e+002 0.000000000000e+000 0.000000000000e+000
          1.910447761194e+002 0.000000000000e+000 0.000000000000e+000
          1.925373134328e+002 0.000000000000e+000 0.000000000000e+000
          1.940298507462e+002 0.000000000000e+000 0.000000000000e+000
          1.955223880597e+002 0.000000000000e+000 0.000000000000e+000
          1.970149253731e+002 0.000000000000e+000 0.000000000000e+000
          1.985074626866e+002 0.000000000000e+000 0.000000000000e+000
          2.000000000000e+002 1.428571428570e+000 0.000000000000e+000
          2.000000000000e+002 2.857142857140e+000 0.000000000000e+000
[...]
      <PointData Scalars="MEAN_PRESSURE">
        <DataArray type="Float64" Name="MEAN_PRESSURE" format="ascii">
          2.000000000000e+002 1.990244137928e+002 1.990244123496e+002 2.000000000000e+002 1.995177002717e+002 1.985378796467e+002 1.978689311441e+002 1.973955136512e+002 1.970766984163e+002 1.968768508975e+002 1.967575340020e+002 1.966974841811e+002 1.966759774099e+002 1.966793255085e+002 1.966971516141e+002 1.967233575869e+002 1.967536677514e+002 1.967856436559e+002 1.968179608491e+002 1.968499812569e+002 1.968814873052e+002 1.969124064668e+002 1.969428486055e+002 1.969729132125e+002 1.970026936881e+002 1.970322600711e+002 1.970616726468e+002 1.970909684114e+002 1.971201679831e+002 1.971492866092e+002 1.971783300359e+002 1.972073011327e+002 1.972361955627e+002 1.972650113750e+002 1.972937438282e+002 1.973223869435e+002 1.973509375841e+002 1.973793877948e+002 1.974077342529e+002 1.974359729353e+002 1.974640952921e+002 1.974920943686e+002 1.975199707344e+002 1.975477157670e+002 1.975753265731e+002 1.976027970361e+002 1.976301251952e+002 1.976572977856e+002 1.976843219577e+002 1.977111832798e+002 1.977378792101e+002 1.977644070836e+002 1.977907657309e+002 1.978169368383e+002 1.978429299361e+002 1.978687363731e+002 1.978943538517e+002 1.979197708534e+002 1.979449860659e+002 1.979700062785e+002 1.979948065820e+002 1.980193946269e+002 1.980437651632e+002 1.980679182624e+002 1.980918435822e+002 1.981155389636e+002 1.981390012200e+002 1.981622239130e+002 1.981852075591e+002 1.982079427014e+002 1.982304338186e+002 1.982526669117e+002 1.982746467428e+002 1.982963652051e+002 1.983178186982e+002 1.983390077773e+002 1.983599229734e+002 1.983805692866e+002 1.984009358639e+002 1.984210231053e+002 1.984408224668e+002 1.984603398032e+002 1.984795641215e+002 1.984984982092e+002 1.985171343746e+002 1.985354711121e+002 1.985535076199e+002 1.985712391911e+002 1.985886631990e+002 1.986057776002e+002 1.986225797107e+002 1.986390675243e+002 1.986552386769e+002 1.986710883331e+002 1.986866126070e+002 1.987018163697e+002 1.987166895248e+002 1.987312339934e+002 1.987454480520e+002 1.987593307151e+002 1.987728764914e+002 1.987860817156e+002 1.987989518231e+002 1.988114766507e+002 1.988236587154e+002 1.988354967605e+002 1.988469902735e+002 1.988581340182e+002 1.988689246524e+002 1.988793682507e+002 1.988894546638e+002 1.988991867306e+002 1.989085644018e+002 1.989175883590e+002 1.989262513036e+002 1.989345511828e+002 1.989424952051e+002 1.989500730280e+002 1.989572879187e+002 1.989641398208e+002 1.989706301430e+002 1.989767543118e+002 1.989825085090e+002 1.989878949840e+002 1.989929124892e+002 1.989975575654e+002 1.990018372387e+002 1.990057506774e+002 1.990092873957e+002 1.990124606624e+002 1.990152672402e+002 1.990176827121e+002 1.990197318265e+002 1.990214100503e+002 1.990227363861e+002 1.990236325887e+002 1.990242094376e+002 1.990243938295e+002 1.990243752403e+002 1.990244156113e+002 1.990244075107e+002 1.990244035407e+002 1.990243962559e+002 1.990243914754e+002 1.990243947899e+002 1.990243951722e+002 1.990243860551e+002 1.990244112505e+002 1.990243729498e+002 1.990243922364e+002 1.990242081375e+002 1.990236315560e+002 1.990227354922e+002 1.990214091684e+002 1.990197311456e+002 1.990176832133e+002 1.990152688858e+002 1.990124625411e+002 1.990092891537e+002 1.990057523120e+002 1.990018376331e+002 1.989975582530e+002 1.989929122698e+002 1.989878937929e+002 1.989825076258e+002 1.989767525437e+002 1.989706279394e+002 1.989641445402e+002 1.989572917890e+002 1.989500740099e+002 1.989424949661e+002 1.989345523382e+002 1.989262482383e+002 1.989175878410e+002 1.989085670134e+002 1.988991902529e+002 1.988894546401e+002 1.988793671561e+002 1.988689225997e+002 1.988581328119e+002 1.988469886432e+002 1.988354973839e+002 1.988236598948e+002 1.988114742867e+002 1.987989502913e+002 1.987860802103e+002 1.987728760758e+002 1.987593297828e+002 1.987454489444e+002 1.987312349866e+002 1.987166869936e+002 1.987018149244e+002 1.986866116193e+002 1.986710884884e+002 1.986552384570e+002 1.986390656003e+002 1.986225805715e+002 1.986057782071e+002 1.985886634931e+002 1.985712391992e+002 1.985535085364e+002 1.985354742793e+002 1.985171369496e+002 1.984984980402e+002 1.984795671305e+002 1.984603399774e+002 1.984408231200e+002 1.984210204076e+002 1.984009369143e+002 1.983805690261e+002 1.983599259867e+002 1.983390089899e+002 1.983178196346e+002 1.982963634921e+002 1.982746449605e+002 1.982526679227e+002 1.982304328204e+002 1.982079446605e+002 1.981852065102e+002 1.981622238236e+002 1.981389992925e+002 1.981155378167e+002 1.980918438338e+002 1.980679185930e+002 1.980437673913e+002 1.980193937522e+002 1.979948033042e+002 1.979699991885e+002 1.979449863914e+002 1.979197703678e+002 1.978943526188e+002 1.978687383562e+002 1.978429313121e+002 1.978169374831e+002 1.977907602141e+002 1.977644053909e+002 1.977378772948e+002 1.977111768412e+002 1.976843168815e+002 1.976572965731e+002 1.976301195503e+002 1.976027943934e+002 1.975753201037e+002 1.975477058884e+002 1.975199578342e+002 1.974920775216e+002 1.974640711075e+002 1.974359441770e+002 1.974077003795e+002 1.973793440747e+002 1.973508823987e+002 1.973223173612e+002 1.972936548373e+002 1.972648991408e+002 1.972360542284e+002 1.972071219013e+002 1.971781036261e+002 1.971490001382e+002 1.971198045646e+002 1.970905081760e+002 1.970610926474e+002 1.970315286015e+002 1.970017678203e+002 1.969717429173e+002 1.969413637479e+002 1.969105179243e+002 1.968790898486e+002 1.968469752210e+002 1.968141940259e+002 1.967809093301e+002 1.967477478993e+002 1.967160097825e+002 1.966881047629e+002 1.966679175945e+002 1.966626117560e+002 1.966819744770e+002 1.967404295326e+002 1.968549311499e+002 1.970568741868e+002 1.973777725469e+002 1.978494334101e+002 1.985252374625e+002 1.995012777507e+002 2.000000000000e+002 2.000000000000e+002 2.000000000000e+002 2.000000000000e+002 2.000000000000e+002 2.000000000000e+002 2.000000000000e+002 2.000000000000e+002 2.000000000000e+002 2.000000000000e+002 2.000000000000e+002 2.000000000000e+002 2.000000000000e+002 1.990160034507e+002 1.967830451485e+002 1.989906082038e+002 1.989464729577e+002 1.988838180864e+002 1.988044668651e+002 1.987083559516e+002 1.969268261479e+002 1.985972526059e+002 1.971363915009e+002 1.973384283697e+002 1.975373064603e+002 1.978277386438e+002 1.980071206897e+002 1.981737395727e+002 1.983284405521e+002 1.984699808782e+002 1.967376148213e+002 1.976843205381e+002 1.985354671425e+002 1.985346313138e+002 1.984009363529e+002 1.982526672852e+002 1.980918443616e+002 1.979197717827e+002 1.989715846720e+002 1.989189248719e+002 1.988483087467e+002 1.979197679475e+002 1.980875691105e+002 1.982544504958e+002 1.983973014615e+002 1.987609326712e+002 1.986552324835e+002 1.970306086998e+002 1.972327630984e+002 1.974391390956e+002 1.986559810447e+002 1.987594623251e+002 1.988470977334e+002 1.989175790444e+002 1.989706209135e+002 1.974356615918e+002 1.972357918969e+002 1.970316898556e+002 1.990053597019e+002 1.990051247778e+002 1.976262224008e+002 1.977449919193e+002 1.966705955829e+002 1.968193628684e+002 1.990214653005e+002 1.973895780855e+002 1.990215117873e+002 1.973909702493e+002 1.966718437384e+002 1.968452154535e+002 1.975965476473e+002 1.977681773598e+002 1.989904543566e+002 1.984699833694e+002 1.989463232104e+002 1.983284471348e+002 1.981737460306e+002 1.980071256734e+002 1.978354744908e+002 1.985970873629e+002 1.988846270465e+002 1.988063650123e+002 1.987106133100e+002 1.971341493133e+002 1.973341197531e+002 1.985974183349e+002 1.987092868445e+002 1.988052506486e+002 1.988844493596e+002 1.980070824087e+002 1.981737043262e+002 1.983284062665e+002 1.989463232703e+002 1.984703302026e+002 1.989904482164e+002 1.975338514134e+002 1.973366193384e+002 1.971344587156e+002 1.969262381654e+002 1.990149462340e+002 1.990151209383e+002 1.967362802476e+002 1.969432659820e+002 1.978482082807e+002 1.975125625983e+002 1.990228635210e+002 1.979248992308e+002 1.967409158258e+002 1.967912203851e+002 1.967353777498e+002 1.976688486591e+002 1.976121268538e+002 1.977563198570e+002 1.966685546724e+002 1.968243327567e+002 1.976849283612e+002 1.990082115262e+002 1.988570553411e+002 1.989088886670e+002 1.987715639977e+002 1.989643700127e+002 1.986695369312e+002 1.984176520688e+002 1.981115608766e+002 1.979407528169e+002 1.982724996500e+002 1.970602903728e+002 1.974104729792e+002 1.972100355683e+002 1.985189193031e+002 1.976843183659e+002 1.990234588925e+002 1.983952015700e+002 1.990234588656e+002 1.983694327330e+002 1.984281700889e+002 1.982824813876e+002 1.981239997259e+002 1.979540042158e+002 1.986331606884e+002 1.985097115981e+002 1.985599125439e+002 1.987403626974e+002 1.974741595501e+002 1.988312675504e+002 1.972752608865e+002 1.989052191701e+002 1.970717256916e+002 1.989617046779e+002 1.989614437038e+002 1.989792750534e+002 1.989048571030e+002 1.989294370333e+002 1.988301686646e+002 1.988616278546e+002 1.987390407297e+002 1.987771480554e+002 1.970761625242e+002 1.986760049447e+002 1.986331143533e+002 1.972780497253e+002 1.971979712288e+002 1.979541332708e+002 1.981249558655e+002 1.982842250763e+002 1.980601087806e+002 1.982230703286e+002 1.984272833777e+002 1.983739002831e+002 1.974056942339e+002 1.985599596711e+002 1.985132283761e+002 1.989788632544e+002 1.969910681151e+002 1.989279858092e+002 1.972010244655e+002 1.988604304362e+002 1.974017340459e+002 1.987756806811e+002 1.978810151152e+002 1.980568251527e+002 1.982201089009e+002 1.983707275862e+002 1.986743805357e+002 1.967237122144e+002 1.990000833392e+002 1.989998929750e+002 1.977732175548e+002 1.975906913083e+002 1.968619510703e+002 1.985583781067e+002 1.982237298484e+002 1.983748530830e+002 1.980612261790e+002 1.978815362738e+002 1.969933848965e+002 1.972728441731e+002 1.989785004086e+002 1.974724632167e+002 1.989285513562e+002 1.988322818798e+002 1.986345807525e+002 1.987415818742e+002 1.970019627377e+002 1.990094167425e+002 1.990094160680e+002 1.977264589663e+002 1.966626756698e+002 1.990004868516e+002 1.985728254474e+002 1.986213303828e+002 1.987301333786e+002 1.974925864613e+002 1.988227393992e+002 1.972958777853e+002 1.980419549163e+002 1.982062532834e+002 1.983583727586e+002 1.989826143708e+002 1.969715653496e+002 1.989351717305e+002 1.968025291276e+002 1.978709170521e+002 1.990196456523e+002 1.990194164388e+002 1.989970091147e+002 1.978976103988e+002 1.974606063559e+002 1.977938521582e+002 1.975712401696e+002 1.970486838070e+002 1.968847209701e+002 1.966784760169e+002 1.966851352662e+002 1.968854093837e+002 1.984398915343e+002 1.982956819371e+002 1.981382600580e+002 1.979692109258e+002 1.988996842199e+002 1.970891437584e+002 1.989576685626e+002 1.984977249357e+002 1.986861959196e+002 1.988988054547e+002 1.987866403076e+002 1.989570136743e+002 1.988693772003e+002 1.984422355976e+002 1.982956218123e+002 1.981399727868e+002 1.979710381645e+002 1.970920614605e+002 1.973801827430e+002 1.971770502259e+002 1.971769547681e+002 1.988693701069e+002 1.973781671544e+002 1.987866235283e+002 1.986872508634e+002 1.984977107852e+002 1.990235539784e+002 1.990236091831e+002 1.984819387379e+002 1.983842474224e+002 1.990200650612e+002 1.971059149923e+002 1.990124345709e+002 1.990129530762e+002 1.968927271312e+002 1.990182202993e+002 1.967189550657e+002 1.971441891838e+002 1.975641953935e+002 1.978018627862e+002 1.969027698305e+002 1.966868982946e+002 1.975454440731e+002 1.967877249618e+002 1.967822775869e+002 1.978201528329e+002 1.967040675624e+002 1.976146022706e+002 1.977235481131e+002 1.966855187991e+002 1.972870484747e+002 1.986273535344e+002 1.987345764462e+002 1.988264479606e+002 1.989336356261e+002 1.989819296322e+002 1.985661926417e+002 1.978741622526e+002 1.980487290949e+002 1.982125677165e+002 1.983641733353e+002 1.976436437870e+002 1.967878596041e+002 1.977291003780e+002 1.976362406691e+002 1.989981350116e+002 1.990175225491e+002 1.969799968438e+002 1.974794257835e+002 1.969426132198e+002 1.972786871981e+002 1.990210568420e+002 1.966964956380e+002 1.984594210608e+002 1.983168086545e+002 1.981611311386e+002 1.979936366583e+002 1.986053603068e+002 1.985890748203e+002 1.984807546219e+002 1.987173694449e+002 1.988120456867e+002 1.975186497678e+002 1.988899090768e+002 1.973209731343e+002 1.989504091736e+002 1.971184426459e+002 1.989877653234e+002 1.989501507735e+002 1.988900690701e+002 1.988124261486e+002 1.987178215709e+002 1.971183192346e+002 1.973201498184e+002 1.979945382524e+002 1.981609487340e+002 1.983166406726e+002 1.989876419671e+002 1.969428479739e+002 1.978453950664e+002 1.989908294711e+002 1.990138541193e+002 1.990138565877e+002 1.969574250346e+002 1.968771777868e+002 1.967053970596e+002 1.977136385011e+002 1.989740677265e+002 1.989224344019e+002 1.988406506033e+002 1.987516646094e+002 1.986448710119e+002 1.970153695156e+002 1.972521199304e+002 1.974515751008e+002 1.983903181391e+002 1.980793589927e+002 1.979067156247e+002 1.982383968174e+002 1.985471070561e+002 1.990032203734e+002 1.990219159713e+002 1.990219171036e+002 1.989450259665e+002 1.988072519919e+002 1.987116671373e+002 1.973320835353e+002 1.980113026769e+002 1.981776493937e+002 1.983320440802e+002 1.975376463036e+002 1.976555892492e+002 1.986004453062e+002 1.985941494766e+002 1.978348781914e+002 1.990239826699e+002 1.989643433152e+002 1.974992129097e+002 1.978628586168e+002 1.986546365824e+002 1.987588136341e+002 1.988465619932e+002 1.989706232828e+002 1.989176017613e+002 1.974369901330e+002 1.972371307548e+002 1.970315485458e+002 1.982526660256e+002 1.984009354709e+002 1.979197681231e+002 1.980918421474e+002 1.989706194493e+002 1.989175822957e+002 1.980918371823e+002 1.982530456502e+002 1.988469801609e+002 1.984011168368e+002 1.987593218185e+002 1.986553811419e+002 1.972361889938e+002 1.985361436916e+002 1.985354663322e+002 1.967678547526e+002 1.975717485904e+002 1.967570733797e+002 1.978839087576e+002 1.976910869303e+002 1.990103607661e+002 1.990100399108e+002 1.977637672055e+002 1.977787405735e+002 1.977034804022e+002 1.986130690536e+002 1.984519486630e+002 1.984877745460e+002 1.985811783082e+002 1.983480687480e+002 1.981950511244e+002 1.980299409759e+002 1.986952909576e+002 1.971618252981e+002 1.973632301918e+002 1.989396232571e+002 1.988748991738e+002 1.987934346965e+002 1.989391092129e+002 1.971615814858e+002 1.988749022155e+002 1.973631828356e+002 1.980299428651e+002 1.981950530721e+002 1.983451586801e+002 1.987934367739e+002 1.986952919981e+002 1.976598164573e+002 1.966703935238e+002 1.990221402575e+002 1.976169451093e+002 1.984706865456e+002 1.984692799023e+002 1.971338196573e+002 1.971334485683e+002 1.988848154307e+002 1.988847308512e+002 1.990190053957e+002 1.967025023238e+002 1.968672039511e+002 1.969448029627e+002 1.967327248556e+002 1.990240177350e+002 1.990553370314e+002 1.990240399747e+002 1.989886549637e+002 1.966744575229e+002 1.989947907525e+002 1.989948798074e+002 1.987088697203e+002 1.988048992228e+002 1.973374357683e+002 1.983275155490e+002 1.980060444926e+002 1.981727336938e+002 1.989463993843e+002 1.968396527854e+002 1.968458781315e+002 1.966877071241e+002 1.978069673705e+002 1.975585131971e+002 1.966966590854e+002 1.968987585806e+002 1.970388835516e+002 1.976087022820e+002 1.968692966943e+002 1.990048722032e+002 1.990048727468e+002 1.975883766689e+002 1.977873285336e+002 1.989998946042e+002 1.975129706140e+002 1.977920660010e+002 1.977613630386e+002 1.989288705967e+002 1.969914148537e+002 1.989788077580e+002 1.980421988010e+002 1.982060698815e+002 1.983585812673e+002 1.985738789240e+002 1.972763128509e+002 1.988308404843e+002 1.974749112199e+002 1.987398495140e+002 1.986200677590e+002 1.989903144790e+002 1.967832182620e+002 1.977268580528e+002 1.976627140206e+002 1.975330484815e+002 1.966727407180e+002 1.990240747619e+002 1.991235240807e+002 1.990240761155e+002 1.991972288551e+002 1.969633839006e+002 1.969278039102e+002 1.976801738466e+002 1.976095552249e+002 1.990191934566e+002 1.974259071467e+002 1.979270965062e+002 1.968429400624e+002 1.978105346066e+002 1.967132951929e+002 1.986755134913e+002 1.987766451203e+002 1.988612196935e+002 1.973996641866e+002 1.971989239875e+002 1.988701627741e+002 1.989565449339e+002 1.987876084885e+002 1.988981989485e+002 1.986884192092e+002 1.971748739367e+002 1.973760338191e+002 1.970940750719e+002 1.979726236644e+002 1.982988998631e+002 1.981414097639e+002 1.984431355555e+002 1.989612735987e+002 1.989046314098e+002 1.970736324044e+002 1.985118626998e+002 1.979520984231e+002 1.981222105082e+002 1.982808238893e+002 1.984266562507e+002 1.984965564812e+002 1.985354691663e+002 1.984009249850e+002 1.980918353678e+002 1.982526650219e+002 1.979197645305e+002 1.989706261720e+002 1.989175836465e+002 1.988471448158e+002 1.986552352999e+002 1.987595205173e+002 1.970321427937e+002 1.972357208589e+002 1.974359256955e+002 1.975558839097e+002 1.968892640722e+002 1.990188595440e+002 1.969582859461e+002 1.984943280412e+002 1.984451650507e+002 1.983007920782e+002 1.981437913429e+002 1.979751146608e+002 1.988967010437e+002 1.989554900715e+002 1.970982573090e+002 1.988712503339e+002 1.987886867861e+002 1.986895496032e+002 1.971717815022e+002 1.973739034512e+002 1.976752029712e+002 1.990053625506e+002 1.976535037186e+002 1.990081030909e+002 1.985330462134e+002 1.985370372957e+002 1.984052874854e+002 1.982573558685e+002 1.980969718773e+002 1.979252265638e+002 1.989697841866e+002 1.989164048913e+002 1.988448908151e+002 1.987567913737e+002 1.986573541244e+002 1.972414956775e+002 1.986538540509e+002 1.980950014587e+002 1.982497258211e+002 1.984036169651e+002 1.987584299477e+002 1.988462443772e+002 1.974377721228e+002 1.989176918234e+002 1.972379420397e+002 1.989707010990e+002 1.970312159234e+002 1.967385474555e+002 1.989101291700e+002 1.970562410088e+002 1.989652706020e+002 1.981103441478e+002 1.984166233028e+002 1.982709970824e+002 1.979394570489e+002 1.972140473850e+002 1.988555031565e+002 1.974144154070e+002 1.987696757352e+002 1.986670302232e+002 1.985218679879e+002 1.968095136849e+002 1.990240472868e+002 1.990681761129e+002 1.990119806860e+002 1.990171496901e+002 1.990171472271e+002 1.976474295932e+002 1.977208762237e+002 1.968328888540e+002 1.970363053794e+002 1.989972452201e+002 1.968224536476e+002 1.990048508105e+002 1.990047438869e+002 1.969182937960e+002 1.986194614211e+002 1.987287627753e+002 1.974959096289e+002 1.988215940859e+002 1.972986195457e+002 1.983600705760e+002 1.982062758855e+002 1.980439402170e+002 1.985735931794e+002 1.989834109963e+002 1.969644221431e+002 1.989359409862e+002 1.975320253345e+002 1.978326170466e+002 1.976293081965e+002 1.966755934600e+002 1.967189460718e+002 1.990230334162e+002 1.980681733410e+002 1.990230330162e+002 1.980165200847e+002 1.979288064995e+002 1.974266979805e+002 1.978625469146e+002 1.966860093551e+002 1.989855375092e+002 1.976062370077e+002 1.975940622235e+002 1.977489894944e+002 1.976248449865e+002 1.968232259727e+002 1.966678973836e+002 1.967455499879e+002 1.974681631023e+002 1.966670800559e+002 1.967800898863e+002 1.976416679990e+002 1.967387766449e+002 1.966740858617e+002 1.976996929413e+002 1.975784335186e+002 1.977546002991e+002 1.976056166523e+002 1.990151094216e+002 1.970843655054e+002 1.969837685593e+002 1.985493390162e+002 1.985802044328e+002 1.989853828817e+002 1.989389051134e+002 1.989759528862e+002 1.989247206889e+002 1.988218900215e+002 1.987291141773e+002 1.972979910736e+002 1.986428696330e+002 1.986140153540e+002 1.978957114496e+002 1.978590783528e+002 1.980694901998e+002 1.980316830026e+002 1.981966765143e+002 1.982319249883e+002 1.983818335844e+002 1.983495022471e+002 1.973580981747e+002 1.990213877360e+002 1.990213616069e+002 1.990229190548e+002 1.990229197626e+002 1.977249851056e+002 1.990224991155e+002 1.984308362868e+002 1.982854040373e+002 1.981271545930e+002 1.979573659259e+002 1.985079221958e+002 1.985623048460e+002 1.986309649814e+002 1.987384695443e+002 1.974779189711e+002 1.988296934479e+002 1.972791138313e+002 1.989039768968e+002 1.970756423801e+002 1.989608011521e+002 1.989607878797e+002 1.989039576531e+002 1.989796750772e+002 1.988296200705e+002 1.987383817520e+0