<?xml version="1.0"?>
<VTKFile type="UnstructuredGrid" version="0.1" byte_order="LittleEndian">
  <UnstructuredGrid>
    <Piece NumberOfPoints="2604" NumberOfCells="4910">
      <Points>
        <DataArray type="Float64" NumberOfComponents="3" format="ascii">
          0.000000000000e+000 0.000000000000e+000 0.000000000000e+000
          2.000000000000e+002 0.000000000000e+000 0.000000000000e+000
          2.000000000000e+002 2.000000000000e+001 0.000000000000e+000
          0.000000000000e+000 2.000000000000e+001 0.000000000000e+000
          1.492537313427e+000 0.000000000000e+000 0.000000000000e+000
          2.985074626854e+000 0.000000000000e+000 0.000000000000e+000
          4.477611940281e+000 0.000000000000e+000 0.000000000000e+000
          5.970149253708e+000 0.000000000000e+000 0.000000000000e+000
          7.462686567135e+000 0.000000000000e+000 0.000000000000e+000
          8.955223880561e+000 0.000000000000e+000 0.000000000000e+000
          1.044776119399e+001 0.000000000000e+000 0.000000000000e+000
          1.194029850741e+001 0.000000000000e+000 0.000000000000e+000
          1.343283582084e+001 0.000000000000e+000 0.000000000000e+000
          1.492537313427e+001 0.000000000000e+000 0.000000000000e+000
          1.641791044770e+001 0.000000000000e+000 0.000000000000e+000
          1.791044776112e+001 0.000000000000e+000 0.000000000000e+000
          1.940298507455e+001 0.000000000000e+000 0.000000000000e+000
          2.089552238798e+001 0.000000000000e+000 0.000000000000e+000
          2.238805970141e+001 0.000000000000e+000 0.000000000000e+000
          2.388059701484e+001 0.000000000000e+000 0.000000000000e+000
          2.537313432826e+001 0.000000000000e+000 0.000000000000e+000
          2.686567164169e+001 0.000000000000e+000 0.000000000000e+000
          2.835820895511e+001 0.000000000000e+000 0.000000000000e+000
          2.985074626854e+001 0.000000000000e+000 0.000000000000e+000
          3.134328358196e+001 0.000000000000e+000 0.000000000000e+000
          3.283582089539e+001 0.000000000000e+000 0.000000000000e+000
          3.432835820881e+001 0.000000000000e+000 0.000000000000e+000
          3.582089552224e+001 0.000000000000e+000 0.000000000000e+000
          3.731343283566e+001 0.000000000000e+000 0.000000000000e+000
          3.880597014909e+001 0.000000000000e+000 0.000000000000e+000
          4.029850746251e+001 0.000000000000e+000 0.000000000000e+000
          4.179104477594e+001 0.000000000000e+000 0.000000000000e+000
          4.328358208936e+001 0.000000000000e+000 0.000000000000e+000
          4.477611940279e+001 0.000000000000e+000 0.000000000000e+000
          4.626865671621e+001 0.000000000000e+000 0.000000000000e+000
          4.776119402964e+001 0.000000000000e+000 0.000000000000e+000
          4.925373134306e+001 0.000000000000e+000 0.000000000000e+000
          5.074626865649e+001 0.000000000000e+000 0.000000000000e+000
          5.223880596991e+001 0.000000000000e+000 0.000000000000e+000
          5.373134328334e+001 0.000000000000e+000 0.000000000000e+000
          5.522388059676e+001 0.000000000000e+000 0.000000000000e+000
          5.671641791019e+001 0.000000000000e+000 0.000000000000e+000
          5.820895522361e+001 0.000000000000e+000 0.000000000000e+000
          5.970149253704e+001 0.000000000000e+000 0.000000000000e+000
          6.119402985046e+001 0.000000000000e+000 0.000000000000e+000
          6.268656716389e+001 0.000000000000e+000 0.000000000000e+000
          6.417910447732e+001 0.000000000000e+000 0.000000000000e+000
          6.567164179075e+001 0.000000000000e+000 0.000000000000e+000
          6.716417910418e+001 0.000000000000e+000 0.000000000000e+000
          6.865671641761e+001 0.000000000000e+000 0.000000000000e+000
          7.014925373104e+001 0.000000000000e+000 0.000000000000e+000
          7.164179104447e+001 0.000000000000e+000 0.000000000000e+000
          7.313432835790e+001 0.000000000000e+000 0.000000000000e+000
          7.462686567133e+001 0.000000000000e+000 0.000000000000e+000
          7.611940298476e+001 0.000000000000e+000 0.000000000000e+000
          7.761194029819e+001 0.000000000000e+000 0.000000000000e+000
          7.910447761162e+001 0.000000000000e+000 0.000000000000e+000
          8.059701492505e+001 0.000000000000e+000 0.000000000000e+000
          8.208955223848e+001 0.000000000000e+000 0.000000000000e+000
          8.358208955191e+001 0.000000000000e+000 0.000000000000e+000
          8.507462686534e+001 0.000000000000e+000 0.000000000000e+000
          8.656716417877e+001 0.000000000000e+000 0.000000000000e+000
          8.805970149220e+001 0.000000000000e+000 0.000000000000e+000
          8.955223880563e+001 0.000000000000e+000 0.000000000000e+000
          9.104477611907e+001 0.000000000000e+000 0.000000000000e+000
          9.253731343250e+001 0.000000000000e+000 0.000000000000e+000
          9.402985074593e+001 0.000000000000e+000 0.000000000000e+000
          9.552238805936e+001 0.000000000000e+000 0.000000000000e+000
          9.701492537279e+001 0.000000000000e+000 0.000000000000e+000
          9.850746268622e+001 0.000000000000e+000 0.000000000000e+000
          9.999999999965e+001 0.000000000000e+000 0.000000000000e+000
          1.014925373131e+002 0.000000000000e+000 0.000000000000e+000
          1.029850746265e+002 0.000000000000e+000 0.000000000000e+000
          1.044776119399e+002 0.000000000000e+000 0.000000000000e+000
          1.059701492534e+002 0.000000000000e+000 0.000000000000e+000
          1.074626865668e+002 0.000000000000e+000 0.000000000000e+000
          1.089552238802e+002 0.000000000000e+000 0.000000000000e+000
          1.104477611937e+002 0.000000000000e+000 0.000000000000e+000
          1.119402985071e+002 0.000000000000e+000 0.000000000000e+000
          1.134328358205e+002 0.000000000000e+000 0.000000000000e+000
          1.149253731340e+002 0.000000000000e+000 0.000000000000e+000
          1.164179104474e+002 0.000000000000e+000 0.000000000000e+000
          1.179104477608e+002 0.000000000000e+000 0.000000000000e+000
          1.194029850742e+002 0.000000000000e+000 0.000000000000e+000
          1.208955223877e+002 0.000000000000e+000 0.000000000000e+000
          1.223880597011e+002 0.000000000000e+000 0.000000000000e+000
          1.238805970145e+002 0.000000000000e+000 0.000000000000e+000
          1.253731343280e+002 0.000000000000e+000 0.000000000000e+000
          1.268656716414e+002 0.000000000000e+000 0.000000000000e+000
          1.283582089548e+002 0.000000000000e+000 0.000000000000e+000
          1.298507462683e+002 0.000000000000e+000 0.000000000000e+000
          1.313432835817e+002 0.000000000000e+000 0.000000000000e+000
          1.328358208952e+002 0.000000000000e+000 0.000000000000e+000
          1.343283582086e+002 0.000000000000e+000 0.000000000000e+000
          1.358208955220e+002 0.000000000000e+000 0.000000000000e+000
          1.373134328355e+002 0.000000000000e+000 0.000000000000e+000
          1.388059701489e+002 0.000000000000e+000 0.000000000000e+000
          1.402985074624e+002 0.000000000000e+000 0.000000000000e+000
          1.417910447758e+002 0.000000000000e+000 0.000000000000e+000
          1.432835820892e+002 0.000000000000e+000 0.000000000000e+000
          1.447761194027e+002 0.000000000000e+000 0.000000000000e+000
          1.462686567161e+002 0.000000000000e+000 0.000000000000e+000
          1.477611940296e+002 0.000000000000e+000 0.000000000000e+000
          1.492537313430e+002 0.000000000000e+000 0.000000000000e+000
          1.507462686564e+002 0.000000000000e+000 0.000000000000e+000
          1.522388059699e+002 0.000000000000e+000 0.000000000000e+000
          1.537313432833e+002 0.000000000000e+000 0.000000000000e+000
          1.552238805968e+002 0.000000000000e+000 0.000000000000e+000
          1.567164179102e+002 0.000000000000e+000 0.000000000000e+000
          1.582089552237e+002 0.000000000000e+000 0.000000000000e+000
          1.597014925371e+002 0.000000000000e+000 0.000000000000e+000
          1.611940298505e+002 0.000000000000e+000 0.000000000000e+000
          1.626865671640e+002 0.000000000000e+000 0.000000000000e+000
          1.641791044774e+002 0.000000000000e+000 0.000000000000e+000
          1.656716417909e+002 0.000000000000e+000 0.000000000000e+000
          1.671641791043e+002 0.000000000000e+000 0.000000000000e+000
          1.686567164177e+002 0.000000000000e+000 0.000000000000e+000
          1.701492537312e+002 0.000000000000e+000 0.000000000000e+000
          1.716417910446e+002 0.000000000000e+000 0.000000000000e+000
          1.731343283581e+002 0.000000000000e+000 0.000000000000e+000
          1.746268656715e+002 0.000000000000e+000 0.000000000000e+000
          1.761194029849e+002 0.000000000000e+000 0.000000000000e+000
          1.776119402984e+002 0.000000000000e+000 0.000000000000e+000
          1.791044776118e+002 0.000000000000e+000 0.000000000000e+000
          1.805970149253e+002 0.000000000000e+000 0.000000000000e+000
          1.820895522387e+002 0.000000000000e+000 0.000000000000e+000
          1.835820895521e+002 0.000000000000e+000 0.000000000000e+000
          1.850746268656e+002 0.000000000000e+000 0.000000000000e+000
          1.865671641790e+002 0.000000000000e+000 0.000000000000e+000
          1.880597014925e+002 0.000000000000e+000 0.000000000000e+000
          1.895522388059e+002 0.000000000000e+000 0.000000000000e+000
          1.910447761194e+002 0.000000000000e+000 0.000000000000e+000
          1.925373134328e+002 0.000000000000e+000 0.000000000000e+000
          1.940298507462e+002 0.000000000000e+000 0.000000000000e+000
          1.955223880597e+002 0.000000000000e+000 0.000000000000e+000
          1.970149253731e+002 0.000000000000e+000 0.000000000000e+000
          1.985074626866e+002 0.000000000000e+000 0.000000000000e+000
          2.000000000000e+002 1.428571428570e+000 0.000000000000e+000
          2.000000000000e+002 2.857142857140e+000 0.000000000000e+000
[...]
      <PointData Scalars="MEAN_PRESSURE">
        <DataArray type="Float64" Name="MEAN_PRESSURE" format="ascii">
          2.000000000000e+002 1.999055705941e+002 1.999055696274e+002 2.000000000000e+002 1.991809913712e+002 1.977937752237e+002 1.970201766347e+002 1.966179969408e+002 1.964513471223e+002 1.964153660386e+002 1.964377950186e+002 1.964852424020e+002 1.965398953745e+002 1.965952233855e+002 1.966495539918e+002 1.967028861111e+002 1.967556409244e+002 1.968081336768e+002 1.968605562933e+002 1.969129790508e+002 1.969654137510e+002 1.970178192597e+002 1.970701751603e+002 1.971224457359e+002 1.971745967257e+002 1.972265931678e+002 1.972784141312e+002 1.973300304936e+002 1.973814111571e+002 1.974325354909e+002 1.974833794949e+002 1.975339292760e+002 1.975841539024e+002 1.976340391765e+002 1.976835651545e+002 1.977327091960e+002 1.977814622197e+002 1.978297956893e+002 1.978777013458e+002 1.979251681348e+002 1.979721668066e+002 1.980186760392e+002 1.980647037901e+002 1.981102225137e+002 1.981552272763e+002 1.981997011213e+002 1.982436430789e+002 1.982870109934e+002 1.983298380713e+002 1.983720791787e+002 1.984137328779e+002 1.984547976321e+002 1.984952769898e+002 1.985351167496e+002 1.985743579739e+002 1.986129800624e+002 1.986509841871e+002 1.986883423885e+002 1.987250602836e+002 1.987611682339e+002 1.987965990658e+002 1.988313869848e+002 1.988655264333e+002 1.988990278578e+002 1.989318719416e+002 1.989640634830e+002 1.989956045770e+002 1.990264889750e+002 1.990567294888e+002 1.990863125494e+002 1.991152615535e+002 1.991435525487e+002 1.991712095794e+002 1.991982246238e+002 1.992246015647e+002 1.992503540096e+002 1.992754723112e+002 1.992999803098e+002 1.993238663017e+002 1.993471438927e+002 1.993698074732e+002 1.993918822623e+002 1.994133581472e+002 1.994342535815e+002 1.994545660477e+002 1.994743057490e+002 1.994934837420e+002 1.995121040284e+002 1.995301745145e+002 1.995477042738e+002 1.995647010790e+002 1.995811740078e+002 1.995971314120e+002 1.996125778607e+002 1.996275194924e+002 1.996419759159e+002 1.996559437325e+002 1.996694375794e+002 1.996824665712e+002 1.996950406423e+002 1.997071636122e+002 1.997188417727e+002 1.997300931093e+002 1.997409153380e+002 1.997513220992e+002 1.997613221313e+002 1.997709247655e+002 1.997801338513e+002 1.997889552967e+002 1.997974050869e+002 1.998054813954e+002 1.998131960316e+002 1.998205574455e+002 1.998275744721e+002 1.998342480660e+002 1.998405840651e+002 1.998465965767e+002 1.998522832911e+002 1.998576539583e+002 1.998627150247e+002 1.998674738148e+002 1.998719323573e+002 1.998760931459e+002 1.998799633515e+002 1.998835469216e+002 1.998868458223e+002 1.998898696620e+002 1.998926216325e+002 1.998950976191e+002 1.998973104910e+002 1.998992607359e+002 1.999009336904e+002 1.999023492421e+002 1.999035059981e+002 1.999044186180e+002 1.999050343382e+002 1.999054303718e+002 1.999055568953e+002 1.999055441377e+002 1.999055718413e+002 1.999055662850e+002 1.999055635659e+002 1.999055585651e+002 1.999055552853e+002 1.999055575623e+002 1.999055578259e+002 1.999055515716e+002 1.999055688671e+002 1.999055425877e+002 1.999055558254e+002 1.999054295030e+002 1.999050336517e+002 1.999044180247e+002 1.999035054108e+002 1.999023487936e+002 1.999009340707e+002 1.998992619259e+002 1.998973118582e+002 1.998950989183e+002 1.998926228678e+002 1.998898699989e+002 1.998868463901e+002 1.998835468019e+002 1.998799624879e+002 1.998760925037e+002 1.998719309958e+002 1.998674720735e+002 1.998627190071e+002 1.998576572854e+002 1.998522841606e+002 1.998465964201e+002 1.998405852345e+002 1.998342453526e+002 1.998275741658e+002 1.998205601193e+002 1.998131996388e+002 1.998054814208e+002 1.997974040199e+002 1.997889532492e+002 1.997801327137e+002 1.997709231030e+002 1.997613229686e+002 1.997513236392e+002 1.997409125953e+002 1.997300913340e+002 1.997188399948e+002 1.997071631781e+002 1.996950394250e+002 1.996824677220e+002 1.996694389092e+002 1.996559399963e+002 1.996419737140e+002 1.996275179343e+002 1.996125779889e+002 1.995971309076e+002 1.995811707373e+002 1.995647023605e+002 1.995477051503e+002 1.995301748986e+002 1.995121039607e+002 1.994934853964e+002 1.994743116764e+002 1.994545709604e+002 1.994342532189e+002 1.994133640714e+002 1.993918825153e+002 1.993698088461e+002 1.993471382326e+002 1.993238687648e+002 1.992999799543e+002 1.992754793574e+002 1.992503570248e+002 1.992246039990e+002 1.991982207866e+002 1.991712054967e+002 1.991435553606e+002 1.991152593601e+002 1.990863179617e+002 1.990567270469e+002 1.990264890532e+002 1.989955996481e+002 1.989640606289e+002 1.989318729977e+002 1.988990291826e+002 1.988655332762e+002 1.988313847005e+002 1.987965894870e+002 1.987611468434e+002 1.987250618300e+002 1.986883415351e+002 1.986509811024e+002 1.986129877327e+002 1.985743640588e+002 1.985351209071e+002 1.984952607303e+002 1.984547950512e+002 1.984137303732e+002 1.983720618746e+002 1.983298271296e+002 1.982870159818e+002 1.982436344788e+002 1.981997070922e+002 1.981552232176e+002 1.981102110433e+002 1.980646877422e+002 1.980186536690e+002 1.979721271957e+002 1.979251251240e+002 1.978776571791e+002 1.978297361643e+002 1.977813871243e+002 1.977326151721e+002 1.976834419288e+002 1.976338844421e+002 1.975839606207e+002 1.975336836442e+002 1.974830697343e+002 1.974321430341e+002 1.973809125930e+002 1.973293995228e+002 1.972776209937e+002 1.972255945168e+002 1.971733320331e+002 1.971208473492e+002 1.970681547613e+002 1.970152643102e+002 1.969621806906e+002 1.969088984634e+002 1.968554008548e+002 1.968016077615e+002 1.967474067243e+002 1.966924954299e+002 1.966364506569e+002 1.965787977928e+002 1.965194058635e+002 1.964600983157e+002 1.964078647741e+002 1.963787719059e+002 1.964144651295e+002 1.965835974497e+002 1.969827646209e+002 1.977668315812e+002 1.991516953386e+002 2.000000000000e+002 2.000000000000e+002 2.000000000000e+002 2.000000000000e+002 2.000000000000e+002 2.000000000000e+002 2.000000000000e+002 2.000000000000e+002 2.000000000000e+002 2.000000000000e+002 2.000000000000e+002 2.000000000000e+002 2.000000000000e+002 1.998997710107e+002 1.963995876286e+002 1.998819029006e+002 1.998495858656e+002 1.998009769979e+002 1.997348718492e+002 1.996481350740e+002 1.970428425188e+002 1.995389949100e+002 1.974099734273e+002 1.977601380074e+002 1.980931738135e+002 1.985514673815e+002 1.988140534084e+002 1.990416730026e+002 1.992375417354e+002 1.994026786679e+002 1.967293999081e+002 1.983298356590e+002 1.994742984476e+002 1.994734099873e+002 1.993238675242e+002 1.991435535476e+002 1.989318742379e+002 1.986883457191e+002 1.998681715456e+002 1.998286094624e+002 1.997720165419e+002 1.986883332790e+002 1.989260207282e+002 1.991458092849e+002 1.993196182846e+002 1.996964779117e+002 1.995971213089e+002 1.972237570715e+002 1.975782053648e+002 1.979304663998e+002 1.995978593251e+002 1.996951558128e+002 1.997710119467e+002 1.998275656627e+002 1.998674663138e+002 1.979246434427e+002 1.975834895858e+002 1.972258155990e+002 1.998923471466e+002 1.998921821993e+002 1.982373775589e+002 1.984247739738e+002 1.965830016878e+002 1.968636106485e+002 1.999035440751e+002 1.965979784160e+002 1.999035760309e+002 1.965778490775e+002 1.965517870694e+002 1.969053269719e+002 1.981896255954e+002 1.984606132820e+002 1.998817941977e+002 1.994026837996e+002 1.998494744265e+002 1.992375572245e+002 1.990416902798e+002 1.988140685658e+002 1.985631392028e+002 1.995388261982e+002 1.998016230158e+002 1.997365111484e+002 1.996502555262e+002 1.974059891856e+002 1.977527739977e+002 1.995391644228e+002 1.996490090386e+002 1.997355488024e+002 1.998014822968e+002 1.988139930200e+002 1.990416224679e+002 1.992374948917e+002 1.998494743204e+002 1.994030667129e+002 1.998817894629e+002 1.980875201916e+002 1.977570565216e+002 1.974066220728e+002 1.970420466592e+002 1.998990379027e+002 1.998991591502e+002 1.964065334541e+002 1.970709516941e+002 1.985822831362e+002 1.980525032462e+002 1.999045059482e+002 1.970630550493e+002 1.967344883084e+002 1.964183944642e+002 1.967264769987e+002 1.983053514989e+002 1.982147392648e+002 1.984423072541e+002 1.965571956569e+002 1.968714266444e+002 1.983307935077e+002 1.998943456541e+002 1.997792451622e+002 1.998208075671e+002 1.997059932793e+002 1.998628827837e+002 1.996110633075e+002 1.993432463579e+002 1.989586718200e+002 1.987189116886e+002 1.991685059131e+002 1.972760910921e+002 1.978823090399e+002 1.975387202533e+002 1.994564834106e+002 1.983298298520e+002 1.999049150479e+002 1.976120896037e+002 1.999049150534e+002 1.975701510337e+002 1.993553473039e+002 1.991809793659e+002 1.989754649850e+002 1.987381017766e+002 1.995752890969e+002 1.994465049005e+002 1.995002285920e+002 1.996778188459e+002 1.979889099149e+002 1.997577593194e+002 1.976517583323e+002 1.998179372500e+002 1.972963249498e+002 1.998609195318e+002 1.998607283838e+002 1.998737575894e+002 1.998176563445e+002 1.998366843856e+002 1.997568350207e+002 1.997829961391e+002 1.996766126543e+002 1.997109505284e+002 1.973039634393e+002 1.996173244439e+002 1.995752420464e+002 1.976565418182e+002 1.975176671165e+002 1.987383127787e+002 1.989767631475e+002 1.991831548302e+002 1.988882218547e+002 1.991058105557e+002 1.993543315047e+002 1.992920864904e+002 1.978742625618e+002 1.995002768113e+002 1.994503265867e+002 1.998734602121e+002 1.971545682333e+002 1.998355755071e+002 1.975230552668e+002 1.997820171864e+002 1.978675897945e+002 1.997096522069e+002 1.986312396499e+002 1.988836874298e+002 1.991020147661e+002 1.992883376616e+002 1.996157583216e+002 1.967056032426e+002 1.998886319535e+002 1.998884974148e+002 1.984683607604e+002 1.981801421967e+002 1.969335892546e+002 1.994986143212e+002 1.991066538055e+002 1.992932105426e+002 1.988897641196e+002 1.986320052368e+002 1.971584310692e+002 1.976475740789e+002 1.998731970200e+002 1.979860934347e+002 1.998360081019e+002 1.997586153407e+002 1.995767057049e+002 1.996789356674e+002 1.971733411774e+002 1.998951880722e+002 1.998951875540e+002 1.983959462376e+002 1.965202239033e+002 1.998889169422e+002 1.995137574236e+002 1.995634401205e+002 1.996684220192e+002 1.980194966668e+002 1.997505408575e+002 1.976872541805e+002 1.988630028663e+002 1.990841233632e+002 1.992736217699e+002 1.998761696672e+002 1.971204052920e+002 1.998410557807e+002 1.968355946049e+002 1.986162218491e+002 1.999022898826e+002 1.999021316121e+002 1.998864575912e+002 1.986557817753e+002 1.979663455646e+002 1.984999756826e+002 1.981485844355e+002 1.964047062058e+002 1.969714094493e+002 1.964698189303e+002 1.966196896640e+002 1.969720960066e+002 1.993687467842e+002 1.991973789058e+002 1.989946092863e+002 1.987600137063e+002 1.998135897112e+002 1.973269435634e+002 1.998579368834e+002 1.994334162849e+002 1.996271306286e+002 1.998128989419e+002 1.997193380993e+002 1.998574527411e+002 1.997893255415e+002 1.993714136826e+002 1.991973082482e+002 1.989968961088e+002 1.987626320907e+002 1.973320085190e+002 1.978311599623e+002 1.974811728013e+002 1.974810381562e+002 1.997893179960e+002 1.978277355359e+002 1.997193167561e+002 1.996281272940e+002 1.994333889765e+002 1.999049803898e+002 1.999050182937e+002 1.977161109517e+002 1.975807685032e+002 1.999025790600e+002 1.964405559270e+002 1.998972924780e+002 1.998976530533e+002 1.963767347845e+002 1.999013053865e+002 1.964433333941e+002 1.964759325456e+002 1.981371293204e+002 1.985122220916e+002 1.970016166323e+002 1.965003699289e+002 1.981065096596e+002 1.968125805832e+002 1.968030579396e+002 1.985399949523e+002 1.966672482400e+002 1.982187261398e+002 1.983914088488e+002 1.966305585979e+002 1.976720554256e+002 1.995694986750e+002 1.996725187740e+002 1.997536900157e+002 1.998398894014e+002 1.998756764209e+002 1.995068353355e+002 1.986210580198e+002 1.988724406336e+002 1.990922917981e+002 1.992805426012e+002 1.982652506431e+002 1.968124760474e+002 1.984000705149e+002 1.982534388070e+002 1.998872550783e+002 1.999008228149e+002 1.971349354394e+002 1.979976611436e+002 1.964051873499e+002 1.965116874590e+002 1.999032627386e+002 1.966528348509e+002 1.993908413187e+002 1.992233573395e+002 1.990250331985e+002 1.987949197922e+002 1.995472748457e+002 1.995305940109e+002 1.994146728021e+002 1.996565727350e+002 1.997414002095e+002 1.980625295048e+002 1.998058408705e+002 1.977303057838e+002 1.998525330654e+002 1.973785108929e+002 1.998798701241e+002 1.998523408171e+002 1.998059691059e+002 1.997417262127e+002 1.996569924495e+002 1.973781640363e+002 1.977288715119e+002 1.987962060696e+002 1.990247932909e+002 1.992231533646e+002 1.998797816064e+002 1.970707062183e+002 1.985780599941e+002 1.998820616439e+002 1.998982793352e+002 1.998982811073e+002 1.970954772191e+002 1.969585857548e+002 1.964299963408e+002 1.983759136307e+002 1.998699798219e+002 1.998313143650e+002 1.997656396698e+002 1.996881139453e+002 1.995869220538e+002 1.971970686956e+002 1.976117717784e+002 1.979512732272e+002 1.993114480103e+002 1.989147740813e+002 1.986691928141e+002 1.991254335885e+002 1.994867047661e+002 1.998908439257e+002 1.999038542822e+002 1.999038550449e+002 1.998485008060e+002 1.997372770886e+002 1.996512447048e+002 1.977492995469e+002 1.988199709803e+002 1.990468187463e+002 1.992419214005e+002 1.966948534968e+002 1.982842899781e+002 1.995422666714e+002 1.995358168589e+002 1.985622439953e+002 1.999052747252e+002 1.983801532388e+002 1.980304605807e+002 1.986042203758e+002 1.995965368344e+002 1.996945719953e+002 1.997705667782e+002 1.998674682364e+002 1.998275835458e+002 1.979268718346e+002 1.975858217585e+002 1.972256229506e+002 1.991435505233e+002 1.993238656178e+002 1.986883343247e+002 1.989318681222e+002 1.998674651104e+002 1.998275688542e+002 1.989318537059e+002 1.991440218341e+002 1.997709136211e+002 1.993240671235e+002 1.996950288344e+002 1.995972657035e+002 1.975841393609e+002 1.994750224685e+002 1.994742968147e+002 1.967802483807e+002 1.981494082733e+002 1.967613352428e+002 1.986355127339e+002 1.983405018173e+002 1.998958469284e+002 1.998956229712e+002 1.984538039267e+002 1.984768367123e+002 1.983599967482e+002 1.995551058075e+002 1.993824236322e+002 1.994224512761e+002 1.995224388169e+002 1.992612709393e+002 1.990695763856e+002 1.988462011424e+002 1.996357917919e+002 1.974545073150e+002 1.978023768449e+002 1.998444274342e+002 1.997937991199e+002 1.997252848891e+002 1.998440400203e+002 1.974541743767e+002 1.997938022117e+002 1.978023116992e+002 1.988462070746e+002 1.990695818397e+002 1.992577660763e+002 1.997252873977e+002 1.996357934265e+002 1.968224209062e+002 1.964877799940e+002 1.999040085338e+002 1.967750154532e+002 1.994034694500e+002 1.994018972073e+002 1.974054323631e+002 1.974048266384e+002 1.998017749162e+002 1.998017077068e+002 1.999018477867e+002 1.966663723570e+002 1.964144322212e+002 1.970737528664e+002 1.967220559427e+002 1.999052987888e+002 1.984971098528e+002 1.999053140724e+002 1.983904201570e+002 1.965860543530e+002 1.998848828343e+002 1.998849460492e+002 1.996486183645e+002 1.997352457982e+002 1.977584477690e+002 1.992364233863e+002 1.988125357710e+002 1.990403537498e+002 1.998495311579e+002 1.968965977321e+002 1.969062458626e+002 1.964734469874e+002 1.985199780257e+002 1.981278586092e+002 1.964778139086e+002 1.969952811555e+002 1.972382670035e+002 1.982092193301e+002 1.969456827212e+002 1.998920052766e+002 1.998920057173e+002 1.981763968306e+002 1.984900029100e+002 1.998884990230e+002 1.980531752064e+002 1.984972442578e+002 1.984500956597e+002 1.998362514870e+002 1.971551407427e+002 1.998734195079e+002 1.988633407871e+002 1.990838869318e+002 1.992738689726e+002 1.995148539330e+002 1.976535682493e+002 1.997573989257e+002 1.979901615891e+002 1.996773489139e+002 1.995621716534e+002 1.998816933348e+002 1.968047098327e+002 1.983965706780e+002 1.982956167692e+002 1.980861948553e+002 1.965893307912e+002 1.999053379536e+002 1.986040634314e+002 1.999053388597e+002 1.987243247750e+002 1.963850375369e+002 1.970446302078e+002 1.983232771752e+002 1.982105986496e+002 1.999019776059e+002 1.979082780273e+002 1.986990396537e+002 1.969016688674e+002 1.985253923132e+002 1.966839595693e+002 1.996168471639e+002 1.997105046513e+002 1.997826625019e+002 1.978640903731e+002 1.975193835587e+002 1.997899592314e+002 1.998571026777e+002 1.997201808441e+002 1.998124163864e+002 1.996292458340e+002 1.974773479113e+002 1.978241098654e+002 1.973355271627e+002 1.987649125302e+002 1.992013502166e+002 1.989988216216e+002 1.993724373180e+002 1.998606014168e+002 1.998174764871e+002 1.972996609370e+002 1.994488360389e+002 1.987353409116e+002 1.989730482200e+002 1.991789072255e+002 1.993536041503e+002 1.994321203840e+002 1.994743021895e+002 1.993238427377e+002 1.989318486444e+002 1.991435477346e+002 1.986883226036e+002 1.998674707013e+002 1.998275701935e+002 1.997710502722e+002 1.995971258277e+002 1.996952074395e+002 1.972264915457e+002 1.975833451076e+002 1.979250909950e+002 1.981235552354e+002 1.969786871491e+002 1.999017469989e+002 1.963913441920e+002 1.994296691780e+002 1.993747408525e+002 1.992036847902e+002 1.990019951871e+002 1.987684796423e+002 1.998112312658e+002 1.998563187831e+002 1.973429610664e+002 1.997908393791e+002 1.997211252691e+002 1.996303201786e+002 1.974719620580e+002 1.978204976099e+002 1.983154122801e+002 1.998923491935e+002 1.982809644862e+002 1.998942694420e+002 1.994717041153e+002 1.994759801696e+002 1.993289237198e+002 1.991494690910e+002 1.989388567939e+002 1.986963065485e+002 1.998668550606e+002 1.998266570711e+002 1.997691767191e+002 1.996927495135e+002 1.995991989005e+002 1.975933472103e+002 1.995957708541e+002 1.989361773450e+002 1.991398251911e+002 1.993269862513e+002 1.996942249383e+002 1.997703017100e+002 1.979281786317e+002 1.998276523289e+002 1.975872222681e+002 1.998675246356e+002 1.972250158893e+002 1.967307334898e+002 1.998217777494e+002 1.972689999974e+002 1.998635459809e+002 1.989570232931e+002 1.993420594251e+002 1.991666354376e+002 1.987170284691e+002 1.975457033490e+002 1.997779633068e+002 1.978889496471e+002 1.997043042083e+002 1.996086333244e+002 1.994596767522e+002 1.964014605761e+002 1.999053190854e+002 1.985292462250e+002 1.998969762454e+002 1.999005647936e+002 1.999005630442e+002 1.982712879037e+002 1.983872302621e+002 1.968858046413e+002 1.972337486954e+002 1.998866242682e+002 1.963808022649e+002 1.998919898850e+002 1.998919148224e+002 1.970279441561e+002 1.995615613543e+002 1.996671574416e+002 1.980250003610e+002 1.997495674032e+002 1.976919647672e+002 1.992756404591e+002 1.990841453003e+002 1.988657610209e+002 1.995145530860e+002 1.998767431366e+002 1.971078758689e+002 1.998416398096e+002 1.980845306606e+002 1.985588447111e+002 1.982423355190e+002 1.965741743752e+002 1.964594862755e+002 1.999046227274e+002 1.972166899134e+002 1.999046224343e+002 1.971444383518e+002 1.987015431059e+002 1.979096055004e+002 1.986037579892e+002 1.966221393526e+002 1.998782720921e+002 1.967714521084e+002 1.981855900798e+002 1.984309691944e+002 1.982351753371e+002 1.968700017187e+002 1.965748983702e+002 1.967429999171e+002 1.979789358986e+002 1.965730312172e+002 1.967993311128e+002 1.982620911003e+002 1.964083426636e+002 1.965174735732e+002 1.983540409410e+002 1.981602655346e+002 1.984396598599e+002 1.982042570923e+002 1.998991511013e+002 1.964437561135e+002 1.971414541049e+002 1.994890772715e+002 1.995214315766e+002 1.998781614483e+002 1.998438859747e+002 1.998713513621e+002 1.998330745551e+002 1.997498241647e+002 1.996674892249e+002 1.976908813849e+002 1.995849475265e+002 1.995560654217e+002 1.986529771462e+002 1.985985644436e+002 1.989011859240e+002 1.988486448189e+002 1.990716944197e+002 1.991171580322e+002 1.993014625944e+002 1.992629957823e+002 1.965570922610e+002 1.999034906982e+002 1.999034726170e+002 1.999045441602e+002 1.999045446250e+002 1.968550430142e+002 1.999042554365e+002 1.993584099782e+002 1.991846271290e+002 1.989797186649e+002 1.987429643466e+002 1.994445561863e+002 1.995027519461e+002 1.995731051569e+002 1.996760896090e+002 1.979951674949e+002 1.997564338831e+002 1.976584091756e+002 1.998169650984e+002 1.973032332641e+002 1.998602537608e+002 1.998602443003e+002 1.998169507112e+002 1.998740476243e+002 1.997563716701e+002 1.996760085876e+0