<?xml version="1.0"?>
<VTKFile type="UnstructuredGrid" version="0.1" byte_order="LittleEndian">
  <UnstructuredGrid>
    <Piece NumberOfPoints="2604" NumberOfCells="4910">
      <Points>
        <DataArray type="Float64" NumberOfComponents="3" format="ascii">
          0.000000000000e+000 0.000000000000e+000 0.000000000000e+000
          2.000000000000e+002 0.000000000000e+000 0.000000000000e+000
          2.000000000000e+002 2.000000000000e+001 0.000000000000e+000
          0.000000000000e+000 2.000000000000e+001 0.000000000000e+000
          1.492537313427e+000 0.000000000000e+000 0.000000000000e+000
          2.985074626854e+000 0.000000000000e+000 0.000000000000e+000
          4.477611940281e+000 0.000000000000e+000 0.000000000000e+000
          5.970149253708e+000 0.000000000000e+000 0.000000000000e+000
          7.462686567135e+000 0.000000000000e+000 0.000000000000e+000
          8.955223880561e+000 0.000000000000e+000 0.000000000000e+000
          1.044776119399e+001 0.000000000000e+000 0.000000000000e+000
          1.194029850741e+001 0.000000000000e+000 0.000000000000e+000
          1.343283582084e+001 0.000000000000e+000 0.000000000000e+000
          1.492537313427e+001 0.000000000000e+000 0.000000000000e+000
          1.641791044770e+001 0.000000000000e+000 0.000000000000e+000
          1.791044776112e+001 0.000000000000e+000 0.000000000000e+000
          1.940298507455e+001 0.000000000000e+000 0.000000000000e+000
          2.089552238798e+001 0.000000000000e+000 0.000000000000e+000
          2.238805970141e+001 0.000000000000e+000 0.000000000000e+000
          2.388059701484e+001 0.000000000000e+000 0.000000000000e+000
          2.537313432826e+001 0.000000000000e+000 0.000000000000e+000
          2.686567164169e+001 0.000000000000e+000 0.000000000000e+000
          2.835820895511e+001 0.000000000000e+000 0.000000000000e+000
          2.985074626854e+001 0.000000000000e+000 0.000000000000e+000
          3.134328358196e+001 0.000000000000e+000 0.000000000000e+000
          3.283582089539e+001 0.000000000000e+000 0.000000000000e+000
          3.432835820881e+001 0.000000000000e+000 0.000000000000e+000
          3.582089552224e+001 0.000000000000e+000 0.000000000000e+000
          3.731343283566e+001 0.000000000000e+000 0.000000000000e+000
          3.880597014909e+001 0.000000000000e+000 0.000000000000e+000
          4.029850746251e+001 0.000000000000e+000 0.000000000000e+000
          4.179104477594e+001 0.000000000000e+000 0.000000000000e+000
          4.328358208936e+001 0.000000000000e+000 0.000000000000e+000
          4.477611940279e+001 0.000000000000e+000 0.000000000000e+000
          4.626865671621e+001 0.000000000000e+000 0.000000000000e+000
          4.776119402964e+001 0.000000000000e+000 0.000000000000e+000
          4.925373134306e+001 0.000000000000e+000 0.000000000000e+000
          5.074626865649e+001 0.000000000000e+000 0.000000000000e+000
          5.223880596991e+001 0.000000000000e+000 0.000000000000e+000
          5.373134328334e+001 0.000000000000e+000 0.000000000000e+000
          5.522388059676e+001 0.000000000000e+000 0.000000000000e+000
          5.671641791019e+001 0.000000000000e+000 0.000000000000e+000
          5.820895522361e+001 0.000000000000e+000 0.000000000000e+000
          5.970149253704e+001 0.000000000000e+000 0.000000000000e+000
          6.119402985046e+001 0.000000000000e+000 0.000000000000e+000
          6.268656716389e+001 0.000000000000e+000 0.000000000000e+000
          6.417910447732e+001 0.000000000000e+000 0.000000000000e+000
          6.567164179075e+001 0.000000000000e+000 0.000000000000e+000
          6.716417910418e+001 0.000000000000e+000 0.000000000000e+000
          6.865671641761e+001 0.000000000000e+000 0.000000000000e+000
          7.014925373104e+001 0.000000000000e+000 0.000000000000e+000
          7.164179104447e+001 0.000000000000e+000 0.000000000000e+000
          7.313432835790e+001 0.000000000000e+000 0.000000000000e+000
          7.462686567133e+001 0.000000000000e+000 0.000000000000e+000
          7.611940298476e+001 0.000000000000e+000 0.000000000000e+000
          7.761194029819e+001 0.000000000000e+000 0.000000000000e+000
          7.910447761162e+001 0.000000000000e+000 0.000000000000e+000
          8.059701492505e+001 0.000000000000e+000 0.000000000000e+000
          8.208955223848e+001 0.000000000000e+000 0.000000000000e+000
          8.358208955191e+001 0.000000000000e+000 0.000000000000e+000
          8.507462686534e+001 0.000000000000e+000 0.000000000000e+000
          8.656716417877e+001 0.000000000000e+000 0.000000000000e+000
          8.805970149220e+001 0.000000000000e+000 0.000000000000e+000
          8.955223880563e+001 0.000000000000e+000 0.000000000000e+000
          9.104477611907e+001 0.000000000000e+000 0.000000000000e+000
          9.253731343250e+001 0.000000000000e+000 0.000000000000e+000
          9.402985074593e+001 0.000000000000e+000 0.000000000000e+000
          9.552238805936e+001 0.000000000000e+000 0.000000000000e+000
          9.701492537279e+001 0.000000000000e+000 0.000000000000e+000
          9.850746268622e+001 0.000000000000e+000 0.000000000000e+000
          9.999999999965e+001 0.000000000000e+000 0.000000000000e+000
          1.014925373131e+002 0.000000000000e+000 0.000000000000e+000
          1.029850746265e+002 0.000000000000e+000 0.000000000000e+000
          1.044776119399e+002 0.000000000000e+000 0.000000000000e+000
          1.059701492534e+002 0.000000000000e+000 0.000000000000e+000
          1.074626865668e+002 0.000000000000e+000 0.000000000000e+000
          1.089552238802e+002 0.000000000000e+000 0.000000000000e+000
          1.104477611937e+002 0.000000000000e+000 0.000000000000e+000
          1.119402985071e+002 0.000000000000e+000 0.000000000000e+000
          1.134328358205e+002 0.000000000000e+000 0.000000000000e+000
          1.149253731340e+002 0.000000000000e+000 0.000000000000e+000
          1.164179104474e+002 0.000000000000e+000 0.000000000000e+000
          1.179104477608e+002 0.000000000000e+000 0.000000000000e+000
          1.194029850742e+002 0.000000000000e+000 0.000000000000e+000
          1.208955223877e+002 0.000000000000e+000 0.000000000000e+000
          1.223880597011e+002 0.000000000000e+000 0.000000000000e+000
          1.238805970145e+002 0.000000000000e+000 0.000000000000e+000
          1.253731343280e+002 0.000000000000e+000 0.000000000000e+000
          1.268656716414e+002 0.000000000000e+000 0.000000000000e+000
          1.283582089548e+002 0.000000000000e+000 0.000000000000e+000
          1.298507462683e+002 0.000000000000e+000 0.000000000000e+000
          1.313432835817e+002 0.000000000000e+000 0.000000000000e+000
          1.328358208952e+002 0.000000000000e+000 0.000000000000e+000
          1.343283582086e+002 0.000000000000e+000 0.000000000000e+000
          1.358208955220e+002 0.000000000000e+000 0.000000000000e+000
          1.373134328355e+002 0.000000000000e+000 0.000000000000e+000
          1.388059701489e+002 0.000000000000e+000 0.000000000000e+000
          1.402985074624e+002 0.000000000000e+000 0.000000000000e+000
          1.417910447758e+002 0.000000000000e+000 0.000000000000e+000
          1.432835820892e+002 0.000000000000e+000 0.000000000000e+000
          1.447761194027e+002 0.000000000000e+000 0.000000000000e+000
          1.462686567161e+002 0.000000000000e+000 0.000000000000e+000
          1.477611940296e+002 0.000000000000e+000 0.000000000000e+000
          1.492537313430e+002 0.000000000000e+000 0.000000000000e+000
          1.507462686564e+002 0.000000000000e+000 0.000000000000e+000
          1.522388059699e+002 0.000000000000e+000 0.000000000000e+000
          1.537313432833e+002 0.000000000000e+000 0.000000000000e+000
          1.552238805968e+002 0.000000000000e+000 0.000000000000e+000
          1.567164179102e+002 0.000000000000e+000 0.000000000000e+000
          1.582089552237e+002 0.000000000000e+000 0.000000000000e+000
          1.597014925371e+002 0.000000000000e+000 0.000000000000e+000
          1.611940298505e+002 0.000000000000e+000 0.000000000000e+000
          1.626865671640e+002 0.000000000000e+000 0.000000000000e+000
          1.641791044774e+002 0.000000000000e+000 0.000000000000e+000
          1.656716417909e+002 0.000000000000e+000 0.000000000000e+000
          1.671641791043e+002 0.000000000000e+000 0.000000000000e+000
          1.686567164177e+002 0.000000000000e+000 0.000000000000e+000
          1.701492537312e+002 0.000000000000e+000 0.000000000000e+000
          1.716417910446e+002 0.000000000000e+000 0.000000000000e+000
          1.731343283581e+002 0.000000000000e+000 0.000000000000e+000
          1.746268656715e+002 0.000000000000e+000 0.000000000000e+000
          1.761194029849e+002 0.000000000000e+000 0.000000000000e+000
          1.776119402984e+002 0.000000000000e+000 0.000000000000e+000
          1.791044776118e+002 0.000000000000e+000 0.000000000000e+000
          1.805970149253e+002 0.000000000000e+000 0.000000000000e+000
          1.820895522387e+002 0.000000000000e+000 0.000000000000e+000
          1.835820895521e+002 0.000000000000e+000 0.000000000000e+000
          1.850746268656e+002 0.000000000000e+000 0.000000000000e+000
          1.865671641790e+002 0.000000000000e+000 0.000000000000e+000
          1.880597014925e+002 0.000000000000e+000 0.000000000000e+000
          1.895522388059e+002 0.000000000000e+000 0.000000000000e+000
          1.910447761194e+002 0.000000000000e+000 0.000000000000e+000
          1.925373134328e+002 0.000000000000e+000 0.000000000000e+000
          1.940298507462e+002 0.000000000000e+000 0.000000000000e+000
          1.955223880597e+002 0.000000000000e+000 0.000000000000e+000
          1.970149253731e+002 0.000000000000e+000 0.000000000000e+000
          1.985074626866e+002 0.000000000000e+000 0.000000000000e+000
          2.000000000000e+002 1.428571428570e+000 0.000000000000e+000
          2.000000000000e+002 2.857142857140e+000 0.000000000000e+000
[...]
      <PointData Scalars="MEAN_PRESSURE">
        <DataArray type="Float64" Name="MEAN_PRESSURE" format="ascii">
          2.000000000000e+002 1.999968414780e+002 1.999968413687e+002 2.000000000000e+002 1.988086953486e+002 1.971513996258e+002 1.964348631900e+002 1.962040848613e+002 1.961953938492e+002 1.962588059952e+002 1.963360644333e+002 1.964133322633e+002 1.964892197285e+002 1.965647360485e+002 1.966404928948e+002 1.967166529256e+002 1.967931197532e+002 1.968697352361e+002 1.969463744222e+002 1.970229147324e+002 1.970992651532e+002 1.971752871337e+002 1.972509226787e+002 1.973260926579e+002 1.974007259286e+002 1.974747371654e+002 1.975480835211e+002 1.976206967149e+002 1.976925027211e+002 1.977634557875e+002 1.978335004828e+002 1.979026138494e+002 1.979707195603e+002 1.980377921890e+002 1.981037901514e+002 1.981686650537e+002 1.982324083569e+002 1.982949562192e+002 1.983563038897e+002 1.984164387012e+002 1.984752990945e+002 1.985328480763e+002 1.985891267834e+002 1.986440831403e+002 1.986977249112e+002 1.987500299159e+002 1.988010166418e+002 1.988506043344e+002 1.988988954372e+002 1.989458049661e+002 1.989913531473e+002 1.990355603061e+002 1.990784572071e+002 1.991199491353e+002 1.991601507547e+002 1.991990414581e+002 1.992366479551e+002 1.992729383655e+002 1.993079501912e+002 1.993417669685e+002 1.993742843877e+002 1.994055945974e+002 1.994357123429e+002 1.994646812487e+002 1.994924922778e+002 1.995191790642e+002 1.995447701052e+002 1.995692804402e+002 1.995927554528e+002 1.996151981346e+002 1.996366687448e+002 1.996571552614e+002 1.996767167376e+002 1.996953647407e+002 1.997131283217e+002 1.997300484622e+002 1.997461345061e+002 1.997614388623e+002 1.997759681733e+002 1.997897601236e+002 1.998028285882e+002 1.998152229971e+002 1.998269511414e+002 1.998380523043e+002 1.998485422010e+002 1.998584498636e+002 1.998678036225e+002 1.998766243612e+002 1.998849360086e+002 1.998927629258e+002 1.999001272955e+002 1.999070518663e+002 1.999135578852e+002 1.999196630877e+002 1.999253858149e+002 1.999307538147e+002 1.999357769832e+002 1.999404776309e+002 1.999448734381e+002 1.999489818378e+002 1.999528159225e+002 1.999563897938e+002 1.999597237172e+002 1.999628257193e+002 1.999657121422e+002 1.999683960723e+002 1.999708902502e+002 1.999732043903e+002 1.999753487333e+002 1.999773373915e+002 1.999791763590e+002 1.999808768498e+002 1.999824482117e+002 1.999838994315e+002 1.999852364323e+002 1.999864664696e+002 1.999875989820e+002 1.999886379590e+002 1.999895906578e+002 1.999904630118e+002 1.999912608057e+002 1.999919882090e+002 1.999926492954e+002 1.999932489511e+002 1.999937910086e+002 1.999942786664e+002 1.999947162942e+002 1.999951067403e+002 1.999954514558e+002 1.999957544220e+002 1.999960173710e+002 1.999962397111e+002 1.999964257118e+002 1.999965762120e+002 1.999966940306e+002 1.999967729803e+002 1.999968235997e+002 1.999968397311e+002 1.999968381033e+002 1.999968416368e+002 1.999968409296e+002 1.999968405858e+002 1.999968399470e+002 1.999968395291e+002 1.999968398210e+002 1.999968398553e+002 1.999968390588e+002 1.999968412682e+002 1.999968379183e+002 1.999968396083e+002 1.999968235026e+002 1.999967729060e+002 1.999966939671e+002 1.999965761484e+002 1.999964256668e+002 1.999962397827e+002 1.999960175609e+002 1.999957546458e+002 1.999954516811e+002 1.999951069714e+002 1.999947163835e+002 1.999942788049e+002 1.999937910207e+002 1.999932488217e+002 1.999926492008e+002 1.999919879513e+002 1.999912604462e+002 1.999904640253e+002 1.999895915479e+002 1.999886382187e+002 1.999875989890e+002 1.999864669174e+002 1.999852356793e+002 1.999838994691e+002 1.999824492456e+002 1.999808782486e+002 1.999791764204e+002 1.999773370406e+002 1.999753480105e+002 1.999732040535e+002 1.999708896396e+002 1.999683965814e+002 1.999657130459e+002 1.999628244191e+002 1.999597228860e+002 1.999563889320e+002 1.999528157744e+002 1.999489811298e+002 1.999448740993e+002 1.999404784500e+002 1.999357743751e+002 1.999307522142e+002 1.999253846295e+002 1.999196630799e+002 1.999135573391e+002 1.999070490827e+002 1.999001282221e+002 1.998927635267e+002 1.998849362282e+002 1.998766242289e+002 1.998678052091e+002 1.998584557453e+002 1.998485472121e+002 1.998380519133e+002 1.998269574414e+002 1.998152231778e+002 1.998028302406e+002 1.997897536729e+002 1.997759715006e+002 1.997614388447e+002 1.997461439267e+002 1.997300528274e+002 1.997131320397e+002 1.996953599816e+002 1.996767115036e+002 1.996571599107e+002 1.996366661557e+002 1.996152070529e+002 1.995927522540e+002 1.995692811615e+002 1.995447626578e+002 1.995191748759e+002 1.994924946651e+002 1.994646841598e+002 1.994357250073e+002 1.994055906812e+002 1.993742666137e+002 1.993417261709e+002 1.993079534392e+002 1.992729369539e+002 1.992366420438e+002 1.991990579917e+002 1.991601644008e+002 1.991199591875e+002 1.990784228871e+002 1.990355563044e+002 1.989913497335e+002 1.989457682478e+002 1.988988745266e+002 1.988506225698e+002 1.988010042139e+002 1.987500560535e+002 1.986977295866e+002 1.986440733549e+002 1.985891106346e+002 1.985328222796e+002 1.984752363064e+002 1.984163781918e+002 1.983562554938e+002 1.982948848709e+002 1.982323183163e+002 1.981685538080e+002 1.981036366473e+002 1.980376008497e+002 1.979704845203e+002 1.979023134110e+002 1.978331224105e+002 1.977629739425e+002 1.976918863001e+002 1.976199155074e+002 1.975471090696e+002 1.974735181372e+002 1.973991805431e+002 1.973241395337e+002 1.972484480836e+002 1.971721514925e+002 1.970952959462e+002 1.970179177978e+002 1.969400749999e+002 1.968617720939e+002 1.967830880187e+002 1.967040158820e+002 1.966245708683e+002 1.965446949874e+002 1.964641029695e+002 1.963819592270e+002 1.962972968914e+002 1.962117556458e+002 1.961426799102e+002 1.961508355012e+002 1.963768995203e+002 1.971054350395e+002 1.987623177393e+002 2.000000000000e+002 2.000000000000e+002 2.000000000000e+002 2.000000000000e+002 2.000000000000e+002 2.000000000000e+002 2.000000000000e+002 2.000000000000e+002 2.000000000000e+002 2.000000000000e+002 2.000000000000e+002 2.000000000000e+002 2.000000000000e+002 1.999960854079e+002 1.962736118695e+002 1.999935433948e+002 1.999881479239e+002 1.999781572020e+002 1.999611044770e+002 1.999329852164e+002 1.972117366919e+002 1.998888983078e+002 1.977322322584e+002 1.982045995841e+002 1.986235646660e+002 1.991367876296e+002 1.993900514517e+002 1.995811195120e+002 1.997216737371e+002 1.998211511427e+002 1.967559535642e+002 1.988988914661e+002 1.998584428413e+002 1.998580098155e+002 1.997759699357e+002 1.996571568367e+002 1.994924962602e+002 1.992729448519e+002 1.999913764339e+002 1.999841105483e+002 1.999711663300e+002 1.992729201232e+002 1.994875668656e+002 1.996587700573e+002 1.997734037875e+002 1.999494395464e+002 1.999135496882e+002 1.974707684945e+002 1.979626740618e+002 1.984230867580e+002 1.999138499255e+002 1.999490159702e+002 1.999709109189e+002 1.999838965383e+002 1.999912590905e+002 1.984157557781e+002 1.979698308481e+002 1.974737787356e+002 1.999950680707e+002 1.999950448174e+002 1.987937668001e+002 1.990033031583e+002 1.965502007613e+002 1.969517842748e+002 1.999965811635e+002 1.961699301066e+002 1.999965852708e+002 1.961222575347e+002 1.965060332780e+002 1.970119528165e+002 1.987382766760e+002 1.990417765891e+002 1.999935276745e+002 1.998211569340e+002 1.999881281950e+002 1.997216945727e+002 1.995811470213e+002 1.993900798667e+002 1.991487307130e+002 1.998888237360e+002 1.999783030285e+002 1.999615736411e+002 1.999337482107e+002 1.977266657057e+002 1.981949708678e+002 1.998889735906e+002 1.999332992120e+002 1.999612982268e+002 1.999782721001e+002 1.993899859176e+002 1.995810736734e+002 1.997216357254e+002 1.999881280473e+002 1.998213603670e+002 1.999935267379e+002 1.986167711749e+002 1.982005741748e+002 1.977276044544e+002 1.972107570409e+002 1.999959874622e+002 1.999960037193e+002 1.962973774014e+002 1.972521113221e+002 1.991681817440e+002 1.985742836822e+002 1.999967052196e+002 1.964438181804e+002 1.967626242687e+002 1.962978546996e+002 1.967526619404e+002 1.988713627311e+002 1.987675603328e+002 1.990221741224e+002 1.965142634983e+002 1.969628489248e+002 1.988999588255e+002 1.999953474952e+002 1.999729831901e+002 1.999824985294e+002 1.999524495700e+002 1.999904904915e+002 1.999190618708e+002 1.997874626717e+002 1.995147310966e+002 1.993021168941e+002 1.996748016893e+002 1.975448592168e+002 1.983621395687e+002 1.979091424532e+002 1.998494995968e+002 1.988988789722e+002 1.999967577102e+002 1.969634043079e+002 1.999967577251e+002 1.969026026618e+002 1.997945193849e+002 1.996834966868e+002 1.995284755325e+002 1.993202144850e+002 1.999045952123e+002 1.998444138336e+002 1.998710197480e+002 1.999433176276e+002 1.984960659045e+002 1.999674475756e+002 1.980614693481e+002 1.999818930029e+002 1.975734370329e+002 1.999901555859e+002 1.999901236874e+002 1.999922797871e+002 1.999818354018e+002 1.999857123993e+002 1.999672026869e+002 1.999739047753e+002 1.999429156673e+002 1.999539828175e+002 1.975840822053e+002 1.999214950860e+002 1.999045745404e+002 1.980678518556e+002 1.978804184360e+002 1.993204588182e+002 1.995295498787e+002 1.996850076089e+002 1.994553828350e+002 1.996297005141e+002 1.997939324886e+002 1.997565400037e+002 1.983519207850e+002 1.998710412590e+002 1.998463739267e+002 1.999922327733e+002 1.973723719787e+002 1.999854963978e+002 1.978878167442e+002 1.999736667048e+002 1.983434040710e+002 1.999535848895e+002 1.992171956297e+002 1.994514974102e+002 1.996269104563e+002 1.997542227587e+002 1.999208926912e+002 1.967222477123e+002 1.999945380832e+002 1.999945185970e+002 1.990500014794e+002 1.987271149089e+002 1.970537410128e+002 1.998702519322e+002 1.996303172847e+002 1.997572326266e+002 1.994567030620e+002 1.992179384877e+002 1.973777548751e+002 1.980558836069e+002 1.999921904520e+002 1.984925908856e+002 1.999855809889e+002 1.999676766253e+002 1.999051882626e+002 1.999436936845e+002 1.973989415078e+002 1.999954639925e+002 1.999954638895e+002 1.989719729534e+002 1.964652779546e+002 1.999945792599e+002 1.998773937230e+002 1.998995839456e+002 1.999401288341e+002 1.985338633769e+002 1.999654987334e+002 1.981086877302e+002 1.994335079624e+002 1.996135519616e+002 1.997449650287e+002 1.999926614431e+002 1.973234077397e+002 1.999865567140e+002 1.969099746908e+002 1.992022619437e+002 1.999964180123e+002 1.999963972571e+002 1.999942220511e+002 1.992413294529e+002 1.984680315052e+002 1.990833503804e+002 1.986898449813e+002 1.961318190346e+002 1.971084719471e+002 1.963958812034e+002 1.965987443029e+002 1.971090126447e+002 1.998022232583e+002 1.996947871214e+002 1.995439643407e+002 1.993406729354e+002 1.999809631234e+002 1.976164477987e+002 1.999896405700e+002 1.998376263203e+002 1.999252485826e+002 1.999808150006e+002 1.999565436638e+002 1.999895568560e+002 1.999754389696e+002 1.998037404139e+002 1.996947442884e+002 1.995457941047e+002 1.993430904927e+002 1.976235171840e+002 1.982967476054e+002 1.978304999891e+002 1.978303233171e+002 1.999754358343e+002 1.982923021758e+002 1.999565316804e+002 1.999256123182e+002 1.998375982214e+002 1.999967660973e+002 1.999967709440e+002 1.970597150285e+002 1.969088446078e+002 1.999964556872e+002 1.961508746832e+002 1.999957520642e+002 1.999958008396e+002 1.961889025494e+002 1.999962887402e+002 1.963530760277e+002 1.961804769826e+002 1.986762608190e+002 1.990962124922e+002 1.971519938095e+002 1.964350269237e+002 1.986396319684e+002 1.968776717894e+002 1.968627219196e+002 1.991249931335e+002 1.966663121139e+002 1.987722034996e+002 1.989670206232e+002 1.966162242133e+002 1.980885192162e+002 1.999021729905e+002 1.999415329155e+002 1.999663570205e+002 1.999863345112e+002 1.999925842459e+002 1.998741626304e+002 1.992070905330e+002 1.994417419362e+002 1.996196735225e+002 1.997493347629e+002 1.988257938164e+002 1.968770880477e+002 1.989764880962e+002 1.988122940669e+002 1.999943386608e+002 1.999962250080e+002 1.973440762575e+002 1.985069126157e+002 1.962068465997e+002 1.961194986157e+002 1.999965446775e+002 1.966465819286e+002 1.998146364542e+002 1.997122875381e+002 1.995681216717e+002 1.993727290254e+002 1.998925690467e+002 1.998851209778e+002 1.998276504859e+002 1.999359943346e+002 1.999629591491e+002 1.985864758385e+002 1.999792550334e+002 1.981654987936e+002 1.999886819607e+002 1.976885235212e+002 1.999932344763e+002 1.999886479432e+002 1.999792843583e+002 1.999630504469e+002 1.999361407795e+002 1.976879693535e+002 1.981635987970e+002 1.993739061949e+002 1.995679352712e+002 1.997121534246e+002 1.999932208227e+002 1.972520990699e+002 1.991639033813e+002 1.999935678441e+002 1.999958853744e+002 1.999958856493e+002 1.972873676500e+002 1.970896816872e+002 1.963373879447e+002 1.989500045580e+002 1.999916717812e+002 1.999846532965e+002 1.999695265267e+002 1.999467334168e+002 1.999094168203e+002 1.974328994386e+002 1.980079297603e+002 1.984491980850e+002 1.997684601219e+002 1.994780846105e+002 1.992544113707e+002 1.996440945241e+002 1.998645274956e+002 1.999948554977e+002 1.999966212753e+002 1.999966213636e+002 1.999879502304e+002 1.999617928192e+002 1.999341035234e+002 1.981904267249e+002 1.993953788897e+002 1.995851162185e+002 1.997245514605e+002 1.961853009879e+002 1.988475044725e+002 1.998903607372e+002 1.998874798699e+002 1.991478239435e+002 1.999968037289e+002 1.978287226499e+002 1.985473316761e+002 1.991902945046e+002 1.999133151270e+002 1.999488285037e+002 1.999707971723e+002 1.999912595272e+002 1.999839003910e+002 1.984185630572e+002 1.979729843075e+002 1.974735447758e+002 1.996571526746e+002 1.997759676728e+002 1.992729223713e+002 1.994924860641e+002 1.999912588130e+002 1.999838976771e+002 1.994924606818e+002 1.996574760940e+002 1.999708853501e+002 1.997760753811e+002 1.999489747590e+002 1.999136063491e+002 1.979706868177e+002 1.998588011315e+002 1.998584410634e+002 1.968304243697e+002 1.986908175175e+002 1.968014947153e+002 1.992213855887e+002 1.989107934683e+002 1.999955545166e+002 1.999955237283e+002 1.990344837353e+002 1.990589713848e+002 1.989324531024e+002 1.998959966424e+002 1.998099524152e+002 1.998318208973e+002 1.998814073134e+002 1.997370881792e+002 1.996025619357e+002 1.994187353286e+002 1.999284770403e+002 1.977937870209e+002 1.982595531381e+002 1.999871934465e+002 1.999764961096e+002 1.999583115334e+002 1.999871215503e+002 1.977933823464e+002 1.999764972617e+002 1.982594733591e+002 1.994187465334e+002 1.996025710667e+002 1.997348301826e+002 1.999583128064e+002 1.999284782734e+002 1.962985979905e+002 1.964207563584e+002 1.999966411459e+002 1.962514865646e+002 1.998215859005e+002 1.998207263822e+002 1.977259139916e+002 1.977250971253e+002 1.999783383897e+002 1.999783234671e+002 1.999963600386e+002 1.966664533884e+002 1.962606942463e+002 1.972562291227e+002 1.967464131531e+002 1.999968067986e+002 1.979468760935e+002 1.999968087609e+002 1.978014643930e+002 1.965531831263e+002 1.999939896980e+002 1.999939990160e+002 1.999331597808e+002 1.999612119695e+002 1.982023945478e+002 1.997209472731e+002 1.993886945577e+002 1.995801022640e+002 1.999881382584e+002 1.969996813401e+002 1.970131258679e+002 1.963988459339e+002 1.991042594204e+002 1.986651836123e+002 1.964032774714e+002 1.971432326691e+002 1.974913080834e+002 1.987611239980e+002 1.970712351940e+002 1.999950201257e+002 1.999950202282e+002 1.987227151374e+002 1.990728767277e+002 1.999945191004e+002 1.985750987661e+002 1.990804804063e+002 1.990305194283e+002 1.999856280133e+002 1.973731516706e+002 1.999922259518e+002 1.994337992979e+002 1.996133757589e+002 1.997451187388e+002 1.998779025192e+002 1.980638817722e+002 1.999673511187e+002 1.984976240495e+002 1.999431594449e+002 1.998990435297e+002 1.999935118258e+002 1.968654220945e+002 1.989726591368e+002 1.988603557604e+002 1.986151533733e+002 1.965584883752e+002 1.999968118122e+002 1.980969165340e+002 1.999968119144e+002 1.982529247744e+002 1.961562951560e+002 1.972143877185e+002 1.988915256550e+002 1.987627440228e+002 1.999963770400e+002 1.983951152212e+002 1.992831951550e+002 1.970067556515e+002 1.991098654674e+002 1.966895268077e+002 1.999213081136e+002 1.999538454099e+002 1.999738236601e+002 1.983389218549e+002 1.978827933995e+002 1.999755866788e+002 1.999894940380e+002 1.999567902518e+002 1.999807074182e+002 1.999260349229e+002 1.978252130423e+002 1.982876248328e+002 1.976284087540e+002 1.993452121714e+002 1.996974829656e+002 1.995473461387e+002 1.998043224495e+002 1.999901009430e+002 1.999817950819e+002 1.975781192755e+002 1.998456018349e+002 1.993176089732e+002 1.995264954521e+002 1.996820509080e+002 1.997935010117e+002 1.998369306265e+002 1.998584464533e+002 1.997759398293e+002 1.994924520225e+002 1.996571480598e+002 1.992728986456e+002 1.999912601720e+002 1.999838981572e+002 1.999709200701e+002 1.999135532597e+002 1.999490318729e+002 1.974746748700e+002 1.979696230954e+002 1.984163396181e+002 1.986600180401e+002 1.971186471001e+002 1.999963467761e+002 1.961744779741e+002 1.998356380908e+002 1.998056260303e+002 1.996990668767e+002 1.995498748349e+002 1.993485014317e+002 1.999804478253e+002 1.999893558493e+002 1.976388570097e+002 1.999757939388e+002 1.999570715393e+002 1.999264333895e+002 1.978178101250e+002 1.982829575475e+002 1.988826840294e+002 1.999950683851e+002 1.988437107985e+002 1.999953367071e+002 1.998571542743e+002 1.998592768140e+002 1.997789840850e+002 1.996613647655e+002 1.994983129830e+002 1.992805696342e+002 1.999911580441e+002 1.999837117136e+002 1.999704409842e+002 1.999482411466e+002 1.999143807852e+002 1.979831169909e+002 1.999130090596e+002 1.994960873083e+002 1.996544789418e+002 1.997778338531e+002 1.999487155153e+002 1.999707285583e+002 1.984202012022e+002 1.999839137541e+002 1.979748667793e+002 1.999912685683e+002 1.974726619930e+002 1.967575273447e+002 1.999827030820e+002 1.975348846021e+002 1.999906035125e+002 1.995133721086e+002 1.997867662119e+002 1.996735083749e+002 1.993003280500e+002 1.979186206720e+002 1.999726617143e+002 1.983705843010e+002 1.999519160588e+002 1.999181141403e+002 1.998511246535e+002 1.962657609002e+002 1.999968093974e+002 1.980177051250e+002 1.999957089361e+002 1.999961908451e+002 1.999961905854e+002 1.988326844738e+002 1.989624298326e+002 1.969843041646e+002 1.974849129713e+002 1.999942460841e+002 1.962290762126e+002 1.999950177342e+002 1.999950071657e+002 1.971899427858e+002 1.998987822317e+002 1.999396947129e+002 1.985406350401e+002 1.999652327102e+002 1.981149317531e+002 1.997462298408e+002 1.996135566459e+002 1.994359003985e+002 1.998777592179e+002 1.999927509685e+002 1.973053901147e+002 1.999866679291e+002 1.986131837878e+002 1.991443710503e+002 1.987995130878e+002 1.965359583219e+002 1.963750326685e+002 1.999967202257e+002 1.965703242353e+002 1.999967201773e+002 1.964804738642e+002 1.992856077351e+002 1.983967902724e+002 1.991898363431e+002 1.966025425273e+002 1.999929885156e+002 1.962593745202e+002 1.987335046016e+002 1.990099876023e+002 1.987912393921e+002 1.969612097347e+002 1.965393115960e+002 1.967759551687e+002 1.984837020669e+002 1.965368432775e+002 1.968571007739e+002 1.988221667330e+002 1.962988304606e+002 1.964596433034e+002 1.989258406392e+002 1.987036662159e+002 1.990193543060e+002 1.987553629763e+002 1.999960026074e+002 1.961742228290e+002 1.973534028050e+002 1.998656838685e+002 1.998809471014e+002 1.999929716564e+002 1.999870928509e+002 1.999918949764e+002 1.999850051946e+002 1.999653071651e+002 1.999398156596e+002 1.981135177628e+002 1.999086122322e+002 1.998964148229e+002 1.992385786966e+002 1.991846021183e+002 1.994665090692e+002 1.994208972406e+002 1.996041739360e+002 1.996380408488e+002 1.997623401666e+002 1.997381976062e+002 1.961193770569e+002 1.999965742689e+002 1.999965718746e+002 1.999967101533e+002 1.999967101999e+002 1.962758842224e+002 1.999966730097e+002 1.997962991423e+002 1.996860328072e+002 1.995319476362e+002 1.993247894079e+002 1.998434093809e+002 1.998722275822e+002 1.999036872132e+002 1.999427396814e+002 1.985038398214e+002 1.999670952152e+002 1.980703557471e+002 1.999816876273e+002 1.975831778890e+002 1.999900418647e+002 1.999900404646e+002 1.999816850862e+002 1.999923263578e+002 1.999670783801e+002 1.999427118268e+0