<?xml version="1.0"?>
<VTKFile type="UnstructuredGrid" version="0.1" byte_order="LittleEndian">
  <UnstructuredGrid>
    <Piece NumberOfPoints="2604" NumberOfCells="4910">
      <Points>
        <DataArray type="Float64" NumberOfComponents="3" format="ascii">
          0.000000000000e+000 0.000000000000e+000 0.000000000000e+000
          2.000000000000e+002 0.000000000000e+000 0.000000000000e+000
          2.000000000000e+002 2.000000000000e+001 0.000000000000e+000
          0.000000000000e+000 2.000000000000e+001 0.000000000000e+000
          1.492537313427e+000 0.000000000000e+000 0.000000000000e+000
          2.985074626854e+000 0.000000000000e+000 0.000000000000e+000
          4.477611940281e+000 0.000000000000e+000 0.000000000000e+000
          5.970149253708e+000 0.000000000000e+000 0.000000000000e+000
          7.462686567135e+000 0.000000000000e+000 0.000000000000e+000
          8.955223880561e+000 0.000000000000e+000 0.000000000000e+000
          1.044776119399e+001 0.000000000000e+000 0.000000000000e+000
          1.194029850741e+001 0.000000000000e+000 0.000000000000e+000
          1.343283582084e+001 0.000000000000e+000 0.000000000000e+000
          1.492537313427e+001 0.000000000000e+000 0.000000000000e+000
          1.641791044770e+001 0.000000000000e+000 0.000000000000e+000
          1.791044776112e+001 0.000000000000e+000 0.000000000000e+000
          1.940298507455e+001 0.000000000000e+000 0.000000000000e+000
          2.089552238798e+001 0.000000000000e+000 0.000000000000e+000
          2.238805970141e+001 0.000000000000e+000 0.000000000000e+000
          2.388059701484e+001 0.000000000000e+000 0.000000000000e+000
          2.537313432826e+001 0.000000000000e+000 0.000000000000e+000
          2.686567164169e+001 0.000000000000e+000 0.000000000000e+000
          2.835820895511e+001 0.000000000000e+000 0.000000000000e+000
          2.985074626854e+001 0.000000000000e+000 0.000000000000e+000
          3.134328358196e+001 0.000000000000e+000 0.000000000000e+000
          3.283582089539e+001 0.000000000000e+000 0.000000000000e+000
          3.432835820881e+001 0.000000000000e+000 0.000000000000e+000
          3.582089552224e+001 0.000000000000e+000 0.000000000000e+000
          3.731343283566e+001 0.000000000000e+000 0.000000000000e+000
          3.880597014909e+001 0.000000000000e+000 0.000000000000e+000
          4.029850746251e+001 0.000000000000e+000 0.000000000000e+000
          4.179104477594e+001 0.000000000000e+000 0.000000000000e+000
          4.328358208936e+001 0.000000000000e+000 0.000000000000e+000
          4.477611940279e+001 0.000000000000e+000 0.000000000000e+000
          4.626865671621e+001 0.000000000000e+000 0.000000000000e+000
          4.776119402964e+001 0.000000000000e+000 0.000000000000e+000
          4.925373134306e+001 0.000000000000e+000 0.000000000000e+000
          5.074626865649e+001 0.000000000000e+000 0.000000000000e+000
          5.223880596991e+001 0.000000000000e+000 0.000000000000e+000
          5.373134328334e+001 0.000000000000e+000 0.000000000000e+000
          5.522388059676e+001 0.000000000000e+000 0.000000000000e+000
          5.671641791019e+001 0.000000000000e+000 0.000000000000e+000
          5.820895522361e+001 0.000000000000e+000 0.000000000000e+000
          5.970149253704e+001 0.000000000000e+000 0.000000000000e+000
          6.119402985046e+001 0.000000000000e+000 0.000000000000e+000
          6.268656716389e+001 0.000000000000e+000 0.000000000000e+000
          6.417910447732e+001 0.000000000000e+000 0.000000000000e+000
          6.567164179075e+001 0.000000000000e+000 0.000000000000e+000
          6.716417910418e+001 0.000000000000e+000 0.000000000000e+000
          6.865671641761e+001 0.000000000000e+000 0.000000000000e+000
          7.014925373104e+001 0.000000000000e+000 0.000000000000e+000
          7.164179104447e+001 0.000000000000e+000 0.000000000000e+000
          7.313432835790e+001 0.000000000000e+000 0.000000000000e+000
          7.462686567133e+001 0.000000000000e+000 0.000000000000e+000
          7.611940298476e+001 0.000000000000e+000 0.000000000000e+000
          7.761194029819e+001 0.000000000000e+000 0.000000000000e+000
          7.910447761162e+001 0.000000000000e+000 0.000000000000e+000
          8.059701492505e+001 0.000000000000e+000 0.000000000000e+000
          8.208955223848e+001 0.000000000000e+000 0.000000000000e+000
          8.358208955191e+001 0.000000000000e+000 0.000000000000e+000
          8.507462686534e+001 0.000000000000e+000 0.000000000000e+000
          8.656716417877e+001 0.000000000000e+000 0.000000000000e+000
          8.805970149220e+001 0.000000000000e+000 0.000000000000e+000
          8.955223880563e+001 0.000000000000e+000 0.000000000000e+000
          9.104477611907e+001 0.000000000000e+000 0.000000000000e+000
          9.253731343250e+001 0.000000000000e+000 0.000000000000e+000
          9.402985074593e+001 0.000000000000e+000 0.000000000000e+000
          9.552238805936e+001 0.000000000000e+000 0.000000000000e+000
          9.701492537279e+001 0.000000000000e+000 0.000000000000e+000
          9.850746268622e+001 0.000000000000e+000 0.000000000000e+000
          9.999999999965e+001 0.000000000000e+000 0.000000000000e+000
          1.014925373131e+002 0.000000000000e+000 0.000000000000e+000
          1.029850746265e+002 0.000000000000e+000 0.000000000000e+000
          1.044776119399e+002 0.000000000000e+000 0.000000000000e+000
          1.059701492534e+002 0.000000000000e+000 0.000000000000e+000
          1.074626865668e+002 0.000000000000e+000 0.000000000000e+000
          1.089552238802e+002 0.000000000000e+000 0.000000000000e+000
          1.104477611937e+002 0.000000000000e+000 0.000000000000e+000
          1.119402985071e+002 0.000000000000e+000 0.000000000000e+000
          1.134328358205e+002 0.000000000000e+000 0.000000000000e+000
          1.149253731340e+002 0.000000000000e+000 0.000000000000e+000
          1.164179104474e+002 0.000000000000e+000 0.000000000000e+000
          1.179104477608e+002 0.000000000000e+000 0.000000000000e+000
          1.194029850742e+002 0.000000000000e+000 0.000000000000e+000
          1.208955223877e+002 0.000000000000e+000 0.000000000000e+000
          1.223880597011e+002 0.000000000000e+000 0.000000000000e+000
          1.238805970145e+002 0.000000000000e+000 0.000000000000e+000
          1.253731343280e+002 0.000000000000e+000 0.000000000000e+000
          1.268656716414e+002 0.000000000000e+000 0.000000000000e+000
          1.283582089548e+002 0.000000000000e+000 0.000000000000e+000
          1.298507462683e+002 0.000000000000e+000 0.000000000000e+000
          1.313432835817e+002 0.000000000000e+000 0.000000000000e+000
          1.328358208952e+002 0.000000000000e+000 0.000000000000e+000
          1.343283582086e+002 0.000000000000e+000 0.000000000000e+000
          1.358208955220e+002 0.000000000000e+000 0.000000000000e+000
          1.373134328355e+002 0.000000000000e+000 0.000000000000e+000
          1.388059701489e+002 0.000000000000e+000 0.000000000000e+000
          1.402985074624e+002 0.000000000000e+000 0.000000000000e+000
          1.417910447758e+002 0.000000000000e+000 0.000000000000e+000
          1.432835820892e+002 0.000000000000e+000 0.000000000000e+000
          1.447761194027e+002 0.000000000000e+000 0.000000000000e+000
          1.462686567161e+002 0.000000000000e+000 0.000000000000e+000
          1.477611940296e+002 0.000000000000e+000 0.000000000000e+000
          1.492537313430e+002 0.000000000000e+000 0.000000000000e+000
          1.507462686564e+002 0.000000000000e+000 0.000000000000e+000
          1.522388059699e+002 0.000000000000e+000 0.000000000000e+000
          1.537313432833e+002 0.000000000000e+000 0.000000000000e+000
          1.552238805968e+002 0.000000000000e+000 0.000000000000e+000
          1.567164179102e+002 0.000000000000e+000 0.000000000000e+000
          1.582089552237e+002 0.000000000000e+000 0.000000000000e+000
          1.597014925371e+002 0.000000000000e+000 0.000000000000e+000
          1.611940298505e+002 0.000000000000e+000 0.000000000000e+000
          1.626865671640e+002 0.000000000000e+000 0.000000000000e+000
          1.641791044774e+002 0.000000000000e+000 0.000000000000e+000
          1.656716417909e+002 0.000000000000e+000 0.000000000000e+000
          1.671641791043e+002 0.000000000000e+000 0.000000000000e+000
          1.686567164177e+002 0.000000000000e+000 0.000000000000e+000
          1.701492537312e+002 0.000000000000e+000 0.000000000000e+000
          1.716417910446e+002 0.000000000000e+000 0.000000000000e+000
          1.731343283581e+002 0.000000000000e+000 0.000000000000e+000
          1.746268656715e+002 0.000000000000e+000 0.000000000000e+000
          1.761194029849e+002 0.000000000000e+000 0.000000000000e+000
          1.776119402984e+002 0.000000000000e+000 0.000000000000e+000
          1.791044776118e+002 0.000000000000e+000 0.000000000000e+000
          1.805970149253e+002 0.000000000000e+000 0.000000000000e+000
          1.820895522387e+002 0.000000000000e+000 0.000000000000e+000
          1.835820895521e+002 0.000000000000e+000 0.000000000000e+000
          1.850746268656e+002 0.000000000000e+000 0.000000000000e+000
          1.865671641790e+002 0.000000000000e+000 0.000000000000e+000
          1.880597014925e+002 0.000000000000e+000 0.000000000000e+000
          1.895522388059e+002 0.000000000000e+000 0.000000000000e+000
          1.910447761194e+002 0.000000000000e+000 0.000000000000e+000
          1.925373134328e+002 0.000000000000e+000 0.000000000000e+000
          1.940298507462e+002 0.000000000000e+000 0.000000000000e+000
          1.955223880597e+002 0.000000000000e+000 0.000000000000e+000
          1.970149253731e+002 0.000000000000e+000 0.000000000000e+000
          1.985074626866e+002 0.000000000000e+000 0.000000000000e+000
          2.000000000000e+002 1.428571428570e+000 0.000000000000e+000
          2.000000000000e+002 2.857142857140e+000 0.000000000000e+000
[...]
      <PointData Scalars="MEAN_PRESSURE">
        <DataArray type="Float64" Name="MEAN_PRESSURE" format="ascii">
          2.000000000000e+002 1.990567373159e+002 1.990567358560e+002 2.000000000000e+002 1.995117638834e+002 1.985232443440e+002 1.978506076923e+002 1.973768113997e+002 1.970597570141e+002 1.968627636005e+002 1.967465945682e+002 1.966895131835e+002 1.966705409930e+002 1.966758945897e+002 1.966952409101e+002 1.967225475714e+002 1.967536515883e+002 1.967862120849e+002 1.968189883478e+002 1.968514027015e+002 1.968832783974e+002 1.969145674258e+002 1.969453919360e+002 1.969758552243e+002 1.970060501073e+002 1.970360445459e+002 1.970658955534e+002 1.970956371490e+002 1.971252874494e+002 1.971548595870e+002 1.971843577714e+002 1.972137837763e+002 1.972431324821e+002 1.972724014207e+002 1.973015854746e+002 1.973306783699e+002 1.973596768090e+002 1.973885726119e+002 1.974173623576e+002 1.974460419230e+002 1.974746025624e+002 1.975030371688e+002 1.975313463264e+002 1.975595212263e+002 1.975875589177e+002 1.976154531557e+002 1.976432019448e+002 1.976707917379e+002 1.976982298537e+002 1.977255015564e+002 1.977526042624e+002 1.977795352636e+002 1.978062933805e+002 1.978328599226e+002 1.978592446439e+002 1.978854387270e+002 1.979114398459e+002 1.979372362610e+002 1.979628266568e+002 1.979882179870e+002 1.980133848512e+002 1.980383350867e+002 1.980630633634e+002 1.980875697827e+002 1.981118438234e+002 1.981358833146e+002 1.981596850383e+002 1.981832424630e+002 1.982065561499e+002 1.982296164934e+002 1.982524280952e+002 1.982749767253e+002 1.982972672755e+002 1.983192915248e+002 1.983410458468e+002 1.983625308483e+002 1.983837369277e+002 1.984046692192e+002 1.984253167168e+002 1.984456798726e+002 1.984657500355e+002 1.984855332101e+002 1.985050182568e+002 1.985242080585e+002 1.985430948386e+002 1.985616771151e+002 1.985799541203e+002 1.985979211173e+002 1.986155754851e+002 1.986329151963e+002 1.986499375724e+002 1.986666406246e+002 1.986830220003e+002 1.986990768381e+002 1.987148012417e+002 1.987302002074e+002 1.987452635333e+002 1.987599932194e+002 1.987743875651e+002 1.987884456188e+002 1.988021618570e+002 1.988155326092e+002 1.988285634373e+002 1.988412440791e+002 1.988535771344e+002 1.988655613744e+002 1.988771963243e+002 1.988884767204e+002 1.988993992190e+002 1.989099700196e+002 1.989201788787e+002 1.989300287138e+002 1.989395195149e+002 1.989486520109e+002 1.989574188467e+002 1.989658179798e+002 1.989738567465e+002 1.989815247072e+002 1.989888252032e+002 1.989957582089e+002 1.990023251805e+002 1.990085215165e+002 1.990143433797e+002 1.990197930734e+002 1.990248693592e+002 1.990295687593e+002 1.990338984051e+002 1.990378574740e+002 1.990414353744e+002 1.990446455473e+002 1.990474847316e+002 1.990499282384e+002 1.990520011170e+002 1.990536987907e+002 1.990550404901e+002 1.990559470692e+002 1.990565305955e+002 1.990567171214e+002 1.990566983171e+002 1.990567391554e+002 1.990567309610e+002 1.990567269451e+002 1.990567195760e+002 1.990567147402e+002 1.990567180930e+002 1.990567184798e+002 1.990567092571e+002 1.990567347442e+002 1.990566960003e+002 1.990567155101e+002 1.990565292805e+002 1.990559460246e+002 1.990550395860e+002 1.990536978987e+002 1.990520004284e+002 1.990499287456e+002 1.990474863966e+002 1.990446474481e+002 1.990414371531e+002 1.990378591282e+002 1.990338988044e+002 1.990295694553e+002 1.990248691373e+002 1.990197918682e+002 1.990143424862e+002 1.990085197272e+002 1.990023229502e+002 1.989957629866e+002 1.989888291216e+002 1.989815257014e+002 1.989738565047e+002 1.989658191504e+002 1.989574157428e+002 1.989486514872e+002 1.989395221611e+002 1.989300322827e+002 1.989201788548e+002 1.989099689108e+002 1.988993971393e+002 1.988884754986e+002 1.988771946725e+002 1.988655620070e+002 1.988535783308e+002 1.988412416824e+002 1.988285618843e+002 1.988155310829e+002 1.988021614357e+002 1.987884446730e+002 1.987743884704e+002 1.987599942270e+002 1.987452609636e+002 1.987301987398e+002 1.987148002385e+002 1.986990769953e+002 1.986830217763e+002 1.986666386695e+002 1.986499384464e+002 1.986329158124e+002 1.986155757834e+002 1.985979211252e+002 1.985799550519e+002 1.985616803354e+002 1.985430974572e+002 1.985242078866e+002 1.985050213174e+002 1.984855333869e+002 1.984657507001e+002 1.984456771272e+002 1.984253177867e+002 1.984046689548e+002 1.983837399967e+002 1.983625320839e+002 1.983410468014e+002 1.983192897808e+002 1.982972654607e+002 1.982749777566e+002 1.982524270791e+002 1.982296184915e+002 1.982065550819e+002 1.981832423731e+002 1.981596830741e+002 1.981358821463e+002 1.981118440818e+002 1.980875701219e+002 1.980630656387e+002 1.980383341963e+002 1.980133815085e+002 1.979882107534e+002 1.979628269931e+002 1.979372357704e+002 1.979114385937e+002 1.978854407608e+002 1.978592460602e+002 1.978328605953e+002 1.978062877628e+002 1.977795335568e+002 1.977526023341e+002 1.977254950143e+002 1.976982247135e+002 1.976707905584e+002 1.976431962515e+002 1.976154505514e+002 1.975875524276e+002 1.975595112841e+002 1.975313333365e+002 1.975030201964e+002 1.974745781555e+002 1.974460129236e+002 1.974173282359e+002 1.973885285578e+002 1.973596212031e+002 1.973306082620e+002 1.973014957990e+002 1.972722883298e+002 1.972429900773e+002 1.972136031939e+002 1.971841296696e+002 1.971545710041e+002 1.971249213994e+002 1.970951736133e+002 1.970653113110e+002 1.970353075933e+002 1.970051172513e+002 1.969746760243e+002 1.969438960079e+002 1.969126648864e+002 1.968808623967e+002 1.968483717870e+002 1.968151889500e+002 1.967814345435e+002 1.967476768006e+002 1.967151270428e+002 1.966860959134e+002 1.966643710446e+002 1.966570136083e+002 1.966737987245e+002 1.967292425076e+002 1.968405541035e+002 1.970396459520e+002 1.973588132898e+002 1.978308266740e+002 1.985104008823e+002 1.994951572436e+002 2.000000000000e+002 2.000000000000e+002 2.000000000000e+002 2.000000000000e+002 2.000000000000e+002 2.000000000000e+002 2.000000000000e+002 2.000000000000e+002 2.000000000000e+002 2.000000000000e+002 2.000000000000e+002 2.000000000000e+002 2.000000000000e+002 1.990482294888e+002 1.967706017334e+002 1.990225380874e+002 1.989778818349e+002 1.989144739176e+002 1.988341471514e+002 1.987368234856e+002 1.969291698085e+002 1.986242780695e+002 1.971417646906e+002 1.973469717124e+002 1.975489507721e+002 1.978438246252e+002 1.980258804672e+002 1.981949236097e+002 1.983518161668e+002 1.984953051512e+002 1.967372703917e+002 1.976982284205e+002 1.985616730793e+002 1.985608261069e+002 1.984253172152e+002 1.982749771062e+002 1.981118446192e+002 1.979372372135e+002 1.990032909716e+002 1.989500045783e+002 1.988785309759e+002 1.979372332952e+002 1.981075071116e+002 1.982767855722e+002 1.984216322432e+002 1.987900677506e+002 1.986830157087e+002 1.970343700109e+002 1.972396463296e+002 1.974492574946e+002 1.986837739982e+002 1.987885788730e+002 1.988773050942e+002 1.989486425767e+002 1.990023158383e+002 1.974457258630e+002 1.972427233612e+002 1.970354702863e+002 1.990374619421e+002 1.990372242801e+002 1.976392391404e+002 1.977598251727e+002 1.966671029315e+002 1.968204209608e+002 1.990537546812e+002 1.973706468994e+002 1.990538017063e+002 1.973717520128e+002 1.966670254258e+002 1.968465825956e+002 1.976091075009e+002 1.977833627674e+002 1.990223824438e+002 1.984953076860e+002 1.989777303111e+002 1.983518228715e+002 1.981949301941e+002 1.980258855543e+002 1.978516770027e+002 1.986241106533e+002 1.989152926900e+002 1.988360689087e+002 1.987391097093e+002 1.971394867039e+002 1.973425953425e+002 1.986244459793e+002 1.987377662799e+002 1.988349406843e+002 1.989151128535e+002 1.980258415992e+002 1.981948878411e+002 1.983517813816e+002 1.989777303710e+002 1.984956592041e+002 1.990223762300e+002 1.975454422707e+002 1.973451344822e+002 1.971398026952e+002 1.969285776496e+002 1.990471599971e+002 1.990473367304e+002 1.967251368469e+002 1.969458150510e+002 1.978646023656e+002 1.975238232828e+002 1.990551690969e+002 1.979065890312e+002 1.967406290767e+002 1.967790229876e+002 1.967350227801e+002 1.976825196583e+002 1.976249267119e+002 1.977713252416e+002 1.966641045713e+002 1.968254481867e+002 1.976988455485e+002 1.990403469835e+002 1.988873848289e+002 1.989398476705e+002 1.988008328664e+002 1.989959911143e+002 1.986975053409e+002 1.984422625688e+002 1.981318475050e+002 1.979585304777e+002 1.982950898223e+002 1.970644949988e+002 1.974201439744e+002 1.972165619187e+002 1.985449036508e+002 1.976982262140e+002 1.990557713620e+002 1.983795346214e+002 1.990557713349e+002 1.983534825311e+002 1.984529247007e+002 1.983052123258e+002 1.981444665966e+002 1.979719786688e+002 1.986606567517e+002 1.985355723668e+002 1.985864441655e+002 1.987692377717e+002 1.974848235764e+002 1.988612799814e+002 1.972828128317e+002 1.989361339553e+002 1.970761049057e+002 1.989932942579e+002 1.989930302028e+002 1.990110719131e+002 1.989357675363e+002 1.989606426943e+002 1.988601675436e+002 1.988920132812e+002 1.987678990621e+002 1.988064870084e+002 1.970806054964e+002 1.987040568968e+002 1.986606098084e+002 1.972856447898e+002 1.972043074303e+002 1.979721097249e+002 1.981454366184e+002 1.983069805910e+002 1.980796461577e+002 1.982449597841e+002 1.984520258585e+002 1.983979079331e+002 1.974152904813e+002 1.985864919129e+002 1.985391363891e+002 1.990106552735e+002 1.969942667227e+002 1.989591741106e+002 1.972074099376e+002 1.988908012299e+002 1.974112686390e+002 1.988050012376e+002 1.978979015092e+002 1.980763145705e+002 1.982419562197e+002 1.983946913603e+002 1.987024115348e+002 1.967230195112e+002 1.990321240335e+002 1.990319314463e+002 1.977884793791e+002 1.976031608513e+002 1.968635230790e+002 1.985848893425e+002 1.982456286797e+002 1.983988739022e+002 1.980807798740e+002 1.978984304446e+002 1.969966126038e+002 1.972803577218e+002 1.990102881567e+002 1.974831007919e+002 1.989597464250e+002 1.988623068336e+002 1.986620953444e+002 1.987704724090e+002 1.970053095214e+002 1.990415662267e+002 1.990415655442e+002 1.977410101124e+002 1.966570975937e+002 1.990325322570e+002 1.985995283814e+002 1.986486718790e+002 1.987588786140e+002 1.975035370086e+002 1.988526464431e+002 1.973037534340e+002 1.980612265890e+002 1.982279029451e+002 1.983821651981e+002 1.990144504862e+002 1.969744938589e+002 1.989664459385e+002 1.968033518724e+002 1.978876520884e+002 1.990519139444e+002 1.990516820730e+002 1.990290139009e+002 1.979147450447e+002 1.974710592887e+002 1.978094264498e+002 1.975834094333e+002 1.970314064647e+002 1.968865569850e+002 1.966706553614e+002 1.966824769213e+002 1.968872476698e+002 1.984648063907e+002 1.983185986533e+002 1.981589331571e+002 1.979874108143e+002 1.989305322200e+002 1.970937870100e+002 1.989892103613e+002 1.985234244099e+002 1.987143792374e+002 1.989296428490e+002 1.988160982139e+002 1.989885477193e+002 1.988998572985e+002 1.984671824469e+002 1.983185376983e+002 1.981606706072e+002 1.979892650884e+002 1.970967477497e+002 1.973893801387e+002 1.971830584077e+002 1.971829622636e+002 1.988998501100e+002 1.973873331115e+002 1.988160811940e+002 1.987154476969e+002 1.985234100186e+002 1.990558675490e+002 1.990559233927e+002 1.984668339838e+002 1.983682649953e+002 1.990523382144e+002 1.970883537850e+002 1.990446191532e+002 1.990451436839e+002 1.968775827889e+002 1.990504720618e+002 1.967091653244e+002 1.971266752692e+002 1.975762557852e+002 1.978175582864e+002 1.969048169461e+002 1.966797504115e+002 1.975572144000e+002 1.967883542294e+002 1.967828121121e+002 1.978361244522e+002 1.967026271884e+002 1.976274402321e+002 1.977380549226e+002 1.966833696105e+002 1.972947850998e+002 1.986547738395e+002 1.987633781465e+002 1.988564008810e+002 1.989648914953e+002 1.990137577049e+002 1.985928076969e+002 1.978909459661e+002 1.980681000171e+002 1.982343075141e+002 1.983880462639e+002 1.976569282078e+002 1.967884834518e+002 1.977436917957e+002 1.976494114611e+002 1.990301529545e+002 1.990497662167e+002 1.969830377782e+002 1.974901716399e+002 1.969270872124e+002 1.972598654937e+002 1.990533414899e+002 1.966947878881e+002 1.984846019462e+002 1.983400216301e+002 1.981821339279e+002 1.980121976081e+002 1.986324924005e+002 1.986159925162e+002 1.985062248390e+002 1.987459521038e+002 1.988418201623e+002 1.975300049638e+002 1.989206387870e+002 1.973292429052e+002 1.989818648389e+002 1.971235383822e+002 1.990196618907e+002 1.989816033734e+002 1.989208007231e+002 1.988422053444e+002 1.987464099886e+002 1.971234102725e+002 1.973284061346e+002 1.980131125206e+002 1.981819489043e+002 1.983398513031e+002 1.990195370871e+002 1.969453993677e+002 1.978617468530e+002 1.990227619505e+002 1.990460551960e+002 1.990460576933e+002 1.969601593097e+002 1.968789229542e+002 1.966956729853e+002 1.977279942099e+002 1.990058032892e+002 1.989535562031e+002 1.988707786943e+002 1.987806827384e+002 1.986725196512e+002 1.970189112124e+002 1.972593078759e+002 1.974618874356e+002 1.984145526796e+002 1.980991774179e+002 1.979239862895e+002 1.982605042605e+002 1.985734683264e+002 1.990352976752e+002 1.990542105729e+002 1.990542117182e+002 1.989764176359e+002 1.988369669205e+002 1.987401770087e+002 1.973405272711e+002 1.980301240595e+002 1.981988895806e+002 1.983554700214e+002 1.975184091191e+002 1.976690570031e+002 1.986275128083e+002 1.986211340892e+002 1.978510717354e+002 1.990563012029e+002 1.989532854722e+002 1.975102663241e+002 1.978794728079e+002 1.986824120766e+002 1.987879220037e+002 1.988767627729e+002 1.990023182366e+002 1.989486655679e+002 1.974470751693e+002 1.972440834916e+002 1.970353279152e+002 1.982749758232e+002 1.984253163175e+002 1.979372334784e+002 1.981118423612e+002 1.990023143561e+002 1.989486458703e+002 1.981118372950e+002 1.982753607894e+002 1.988771860744e+002 1.984255001390e+002 1.987884365925e+002 1.986831662893e+002 1.972431258539e+002 1.985623586695e+002 1.985616722549e+002 1.967681611277e+002 1.975839256819e+002 1.967571269442e+002 1.979008384139e+002 1.977050982637e+002 1.990425212324e+002 1.990421966444e+002 1.977788856513e+002 1.977940860743e+002 1.977176811128e+002 1.986403023487e+002 1.984770279109e+002 1.985133397029e+002 1.986079917546e+002 1.983717179785e+002 1.982165406649e+002 1.980490363959e+002 1.987235911073e+002 1.971675944706e+002 1.973721620372e+002 1.989709505683e+002 1.989054465571e+002 1.988229774831e+002 1.989704304015e+002 1.971673488354e+002 1.989054496389e+002 1.973721143164e+002 1.980490383257e+002 1.982165426517e+002 1.983687673976e+002 1.988229795897e+002 1.987235921641e+002 1.976409886915e+002 1.966634463173e+002 1.990544374567e+002 1.975979397170e+002 1.984960203996e+002 1.984945946751e+002 1.971391522563e+002 1.971387763986e+002 1.989154833662e+002 1.989153977625e+002 1.990512662634e+002 1.967011165617e+002 1.968533112494e+002 1.969473745253e+002 1.967323108733e+002 1.990563366740e+002 1.990449432809e+002 1.990563591712e+002 1.989774989357e+002 1.966708914930e+002 1.990267695986e+002 1.990268596948e+002 1.987373438270e+002 1.988345848896e+002 1.973459636247e+002 1.983508782688e+002 1.980247884354e+002 1.981939033027e+002 1.989778073889e+002 1.968409571034e+002 1.968472513027e+002 1.966797320352e+002 1.978227399560e+002 1.975704857731e+002 1.966885211390e+002 1.969007636278e+002 1.970427658558e+002 1.976214493951e+002 1.968709533340e+002 1.990369687640e+002 1.990369693142e+002 1.976008105061e+002 1.978028041148e+002 1.990319330968e+002 1.975242376512e+002 1.978076132608e+002 1.977764450014e+002 1.989600694816e+002 1.969946180221e+002 1.990105991216e+002 1.980614740400e+002 1.982277169285e+002 1.983823765938e+002 1.986005958028e+002 1.972838812344e+002 1.988608476429e+002 1.974855869312e+002 1.987687180814e+002 1.986473927416e+002 1.990222409227e+002 1.967837617532e+002 1.977414152907e+002 1.976762910307e+002 1.975446268587e+002 1.966694001599e+002 1.990563943611e+002 1.991138443564e+002 1.990563957301e+002 1.991884388261e+002 1.969471842180e+002 1.969301617219e+002 1.976940182508e+002 1.976223154764e+002 1.990514565049e+002 1.974358190693e+002 1.979446710201e+002 1.968442819822e+002 1.978263610306e+002 1.967121372891e+002 1.987035590888e+002 1.988059777639e+002 1.988916001325e+002 1.974091663817e+002 1.972052763305e+002 1.989006524313e+002 1.989880734117e+002 1.988170784684e+002 1.989290289948e+002 1.987166310776e+002 1.971808478282e+002 1.973851661880e+002 1.970987921837e+002 1.979908740776e+002 1.983218617616e+002 1.981621283516e+002 1.984680946867e+002 1.989928580776e+002 1.989355391074e+002 1.970780400809e+002 1.985377523389e+002 1.979700445702e+002 1.981426514481e+002 1.983035314494e+002 1.984513901146e+002 1.985222401474e+002 1.985616751369e+002 1.984253056434e+002 1.981118354448e+002 1.982749747994e+002 1.979372298085e+002 1.990023211616e+002 1.989486472387e+002 1.988773527512e+002 1.986830185694e+002 1.987886377954e+002 1.970359272163e+002 1.972426507509e+002 1.974459940231e+002 1.975678157240e+002 1.968911491196e+002 1.990511187201e+002 1.969422262142e+002 1.985199816453e+002 1.984701518586e+002 1.983237805423e+002 1.981645442826e+002 1.979934019230e+002 1.989275129747e+002 1.989870060397e+002 1.971030402800e+002 1.989017532386e+002 1.988181702398e+002 1.987177759828e+002 1.971777075444e+002 1.973830025744e+002 1.976889712946e+002 1.990374648242e+002 1.976669394467e+002 1.990402372841e+002 1.985592197832e+002 1.985632642213e+002 1.984297281716e+002 1.982797320327e+002 1.981170466598e+002 1.979427732206e+002 1.990014692409e+002 1.989474543226e+002 1.988750710588e+002 1.987858742366e+002 1.986851648595e+002 1.972485160765e+002 1.986816193998e+002 1.981150476166e+002 1.982719939533e+002 1.984280346987e+002 1.987875334720e+002 1.988764412497e+002 1.974478693289e+002 1.989487567072e+002 1.972449074327e+002 1.990023969684e+002 1.970349901439e+002 1.967382167921e+002 1.989411031211e+002 1.970603854073e+002 1.989969023537e+002 1.981306131233e+002 1.984412196933e+002 1.982935660933e+002 1.979572154424e+002 1.972206369818e+002 1.988858136145e+002 1.974241480227e+002 1.987989208458e+002 1.986949662402e+002 1.985478919013e+002 1.967965401412e+002 1.990563665679e+002 1.990580458150e+002 1.990441599909e+002 1.990493890313e+002 1.990493865396e+002 1.976607721380e+002 1.977353422966e+002 1.968341167258e+002 1.970401500409e+002 1.990292527625e+002 1.968087815972e+002 1.990369471201e+002 1.990368389504e+002 1.969205282172e+002 1.986467784685e+002 1.987574905887e+002 1.975069118003e+002 1.988514869575e+002 1.973065381839e+002 1.983838865461e+002 1.982279258418e+002 1.980632409482e+002 1.986003062609e+002 1.990152564669e+002 1.969672525794e+002 1.989672243776e+002 1.975435878489e+002 1.978487765683e+002 1.976423723958e+002 1.966714714630e+002 1.967095923563e+002 1.990553409595e+002 1.980504825610e+002 1.990553405548e+002 1.979983852704e+002 1.979464065047e+002 1.974366222643e+002 1.978791564402e+002 1.966834316930e+002 1.990174079430e+002 1.975872948071e+002 1.976065836910e+002 1.977638835206e+002 1.976378405702e+002 1.968243325670e+002 1.966641923256e+002 1.967453962088e+002 1.974787337078e+002 1.966633406673e+002 1.967805778593e+002 1.976549220692e+002 1.967276185097e+002 1.966679759330e+002 1.977138357756e+002 1.975907138502e+002 1.977695796074e+002 1.976183162859e+002 1.990473250797e+002 1.970671891071e+002 1.969868592289e+002 1.985757300443e+002 1.986070050158e+002 1.990172515029e+002 1.989702238699e+002 1.990077106591e+002 1.989558699033e+002 1.988517865796e+002 1.987578464918e+002 1.973058995531e+002 1.986704922564e+002 1.986412610649e+002 1.979128177038e+002 1.978756357692e+002 1.980891646328e+002 1.980508040072e+002 1.982181893160e+002 1.982539404240e+002 1.984059509536e+002 1.983731714274e+002 1.973389760078e+002 1.990536762183e+002 1.990536497860e+002 1.990552252740e+002 1.990552259899e+002 1.977059072763e+002 1.990548004715e+002 1.984556274097e+002 1.983081761742e+002 1.981476671575e+002 1.979753902819e+002 1.985337589081e+002 1.985888682788e+002 1.986584324242e+002 1.987673206342e+002 1.974886415180e+002 1.988596864595e+002 1.972867263713e+002 1.989348767102e+002 1.970800810160e+002 1.989923800453e+002 1.989923666175e+002 1.989348572378e+002 1.990114766448e+002 1.988596121748e+002 1.987672317259e+0