<?xml version="1.0"?>
<VTKFile type="UnstructuredGrid" version="0.1" byte_order="LittleEndian">
  <UnstructuredGrid>
    <Piece NumberOfPoints="2604" NumberOfCells="4910">
      <Points>
        <DataArray type="Float64" NumberOfComponents="3" format="ascii">
          0.000000000000e+000 0.000000000000e+000 0.000000000000e+000
          2.000000000000e+002 0.000000000000e+000 0.000000000000e+000
          2.000000000000e+002 2.000000000000e+001 0.000000000000e+000
          0.000000000000e+000 2.000000000000e+001 0.000000000000e+000
          1.492537313427e+000 0.000000000000e+000 0.000000000000e+000
          2.985074626854e+000 0.000000000000e+000 0.000000000000e+000
          4.477611940281e+000 0.000000000000e+000 0.000000000000e+000
          5.970149253708e+000 0.000000000000e+000 0.000000000000e+000
          7.462686567135e+000 0.000000000000e+000 0.000000000000e+000
          8.955223880561e+000 0.000000000000e+000 0.000000000000e+000
          1.044776119399e+001 0.000000000000e+000 0.000000000000e+000
          1.194029850741e+001 0.000000000000e+000 0.000000000000e+000
          1.343283582084e+001 0.000000000000e+000 0.000000000000e+000
          1.492537313427e+001 0.000000000000e+000 0.000000000000e+000
          1.641791044770e+001 0.000000000000e+000 0.000000000000e+000
          1.791044776112e+001 0.000000000000e+000 0.000000000000e+000
          1.940298507455e+001 0.000000000000e+000 0.000000000000e+000
          2.089552238798e+001 0.000000000000e+000 0.000000000000e+000
          2.238805970141e+001 0.000000000000e+000 0.000000000000e+000
          2.388059701484e+001 0.000000000000e+000 0.000000000000e+000
          2.537313432826e+001 0.000000000000e+000 0.000000000000e+000
          2.686567164169e+001 0.000000000000e+000 0.000000000000e+000
          2.835820895511e+001 0.000000000000e+000 0.000000000000e+000
          2.985074626854e+001 0.000000000000e+000 0.000000000000e+000
          3.134328358196e+001 0.000000000000e+000 0.000000000000e+000
          3.283582089539e+001 0.000000000000e+000 0.000000000000e+000
          3.432835820881e+001 0.000000000000e+000 0.000000000000e+000
          3.582089552224e+001 0.000000000000e+000 0.000000000000e+000
          3.731343283566e+001 0.000000000000e+000 0.000000000000e+000
          3.880597014909e+001 0.000000000000e+000 0.000000000000e+000
          4.029850746251e+001 0.000000000000e+000 0.000000000000e+000
          4.179104477594e+001 0.000000000000e+000 0.000000000000e+000
          4.328358208936e+001 0.000000000000e+000 0.000000000000e+000
          4.477611940279e+001 0.000000000000e+000 0.000000000000e+000
          4.626865671621e+001 0.000000000000e+000 0.000000000000e+000
          4.776119402964e+001 0.000000000000e+000 0.000000000000e+000
          4.925373134306e+001 0.000000000000e+000 0.000000000000e+000
          5.074626865649e+001 0.000000000000e+000 0.000000000000e+000
          5.223880596991e+001 0.000000000000e+000 0.000000000000e+000
          5.373134328334e+001 0.000000000000e+000 0.000000000000e+000
          5.522388059676e+001 0.000000000000e+000 0.000000000000e+000
          5.671641791019e+001 0.000000000000e+000 0.000000000000e+000
          5.820895522361e+001 0.000000000000e+000 0.000000000000e+000
          5.970149253704e+001 0.000000000000e+000 0.000000000000e+000
          6.119402985046e+001 0.000000000000e+000 0.000000000000e+000
          6.268656716389e+001 0.000000000000e+000 0.000000000000e+000
          6.417910447732e+001 0.000000000000e+000 0.000000000000e+000
          6.567164179075e+001 0.000000000000e+000 0.000000000000e+000
          6.716417910418e+001 0.000000000000e+000 0.000000000000e+000
          6.865671641761e+001 0.000000000000e+000 0.000000000000e+000
          7.014925373104e+001 0.000000000000e+000 0.000000000000e+000
          7.164179104447e+001 0.000000000000e+000 0.000000000000e+000
          7.313432835790e+001 0.000000000000e+000 0.000000000000e+000
          7.462686567133e+001 0.000000000000e+000 0.000000000000e+000
          7.611940298476e+001 0.000000000000e+000 0.000000000000e+000
          7.761194029819e+001 0.000000000000e+000 0.000000000000e+000
          7.910447761162e+001 0.000000000000e+000 0.000000000000e+000
          8.059701492505e+001 0.000000000000e+000 0.000000000000e+000
          8.208955223848e+001 0.000000000000e+000 0.000000000000e+000
          8.358208955191e+001 0.000000000000e+000 0.000000000000e+000
          8.507462686534e+001 0.000000000000e+000 0.000000000000e+000
          8.656716417877e+001 0.000000000000e+000 0.000000000000e+000
          8.805970149220e+001 0.000000000000e+000 0.000000000000e+000
          8.955223880563e+001 0.000000000000e+000 0.000000000000e+000
          9.104477611907e+001 0.000000000000e+000 0.000000000000e+000
          9.253731343250e+001 0.000000000000e+000 0.000000000000e+000
          9.402985074593e+001 0.000000000000e+000 0.000000000000e+000
          9.552238805936e+001 0.000000000000e+000 0.000000000000e+000
          9.701492537279e+001 0.000000000000e+000 0.000000000000e+000
          9.850746268622e+001 0.000000000000e+000 0.000000000000e+000
          9.999999999965e+001 0.000000000000e+000 0.000000000000e+000
          1.014925373131e+002 0.000000000000e+000 0.000000000000e+000
          1.029850746265e+002 0.000000000000e+000 0.000000000000e+000
          1.044776119399e+002 0.000000000000e+000 0.000000000000e+000
          1.059701492534e+002 0.000000000000e+000 0.000000000000e+000
          1.074626865668e+002 0.000000000000e+000 0.000000000000e+000
          1.089552238802e+002 0.000000000000e+000 0.000000000000e+000
          1.104477611937e+002 0.000000000000e+000 0.000000000000e+000
          1.119402985071e+002 0.000000000000e+000 0.000000000000e+000
          1.134328358205e+002 0.000000000000e+000 0.000000000000e+000
          1.149253731340e+002 0.000000000000e+000 0.000000000000e+000
          1.164179104474e+002 0.000000000000e+000 0.000000000000e+000
          1.179104477608e+002 0.000000000000e+000 0.000000000000e+000
          1.194029850742e+002 0.000000000000e+000 0.000000000000e+000
          1.208955223877e+002 0.000000000000e+000 0.000000000000e+000
          1.223880597011e+002 0.000000000000e+000 0.000000000000e+000
          1.238805970145e+002 0.000000000000e+000 0.000000000000e+000
          1.253731343280e+002 0.000000000000e+000 0.000000000000e+000
          1.268656716414e+002 0.000000000000e+000 0.000000000000e+000
          1.283582089548e+002 0.000000000000e+000 0.000000000000e+000
          1.298507462683e+002 0.000000000000e+000 0.000000000000e+000
          1.313432835817e+002 0.000000000000e+000 0.000000000000e+000
          1.328358208952e+002 0.000000000000e+000 0.000000000000e+000
          1.343283582086e+002 0.000000000000e+000 0.000000000000e+000
          1.358208955220e+002 0.000000000000e+000 0.000000000000e+000
          1.373134328355e+002 0.000000000000e+000 0.000000000000e+000
          1.388059701489e+002 0.000000000000e+000 0.000000000000e+000
          1.402985074624e+002 0.000000000000e+000 0.000000000000e+000
          1.417910447758e+002 0.000000000000e+000 0.000000000000e+000
          1.432835820892e+002 0.000000000000e+000 0.000000000000e+000
          1.447761194027e+002 0.000000000000e+000 0.000000000000e+000
          1.462686567161e+002 0.000000000000e+000 0.000000000000e+000
          1.477611940296e+002 0.000000000000e+000 0.000000000000e+000
          1.492537313430e+002 0.000000000000e+000 0.000000000000e+000
          1.507462686564e+002 0.000000000000e+000 0.000000000000e+000
          1.522388059699e+002 0.000000000000e+000 0.000000000000e+000
          1.537313432833e+002 0.000000000000e+000 0.000000000000e+000
          1.552238805968e+002 0.000000000000e+000 0.000000000000e+000
          1.567164179102e+002 0.000000000000e+000 0.000000000000e+000
          1.582089552237e+002 0.000000000000e+000 0.000000000000e+000
          1.597014925371e+002 0.000000000000e+000 0.000000000000e+000
          1.611940298505e+002 0.000000000000e+000 0.000000000000e+000
          1.626865671640e+002 0.000000000000e+000 0.000000000000e+000
          1.641791044774e+002 0.000000000000e+000 0.000000000000e+000
          1.656716417909e+002 0.000000000000e+000 0.000000000000e+000
          1.671641791043e+002 0.000000000000e+000 0.000000000000e+000
          1.686567164177e+002 0.000000000000e+000 0.000000000000e+000
          1.701492537312e+002 0.000000000000e+000 0.000000000000e+000
          1.716417910446e+002 0.000000000000e+000 0.000000000000e+000
          1.731343283581e+002 0.000000000000e+000 0.000000000000e+000
          1.746268656715e+002 0.000000000000e+000 0.000000000000e+000
          1.761194029849e+002 0.000000000000e+000 0.000000000000e+000
          1.776119402984e+002 0.000000000000e+000 0.000000000000e+000
          1.791044776118e+002 0.000000000000e+000 0.000000000000e+000
          1.805970149253e+002 0.000000000000e+000 0.000000000000e+000
          1.820895522387e+002 0.000000000000e+000 0.000000000000e+000
          1.835820895521e+002 0.000000000000e+000 0.000000000000e+000
          1.850746268656e+002 0.000000000000e+000 0.000000000000e+000
          1.865671641790e+002 0.000000000000e+000 0.000000000000e+000
          1.880597014925e+002 0.000000000000e+000 0.000000000000e+000
          1.895522388059e+002 0.000000000000e+000 0.000000000000e+000
          1.910447761194e+002 0.000000000000e+000 0.000000000000e+000
          1.925373134328e+002 0.000000000000e+000 0.000000000000e+000
          1.940298507462e+002 0.000000000000e+000 0.000000000000e+000
          1.955223880597e+002 0.000000000000e+000 0.000000000000e+000
          1.970149253731e+002 0.000000000000e+000 0.000000000000e+000
          1.985074626866e+002 0.000000000000e+000 0.000000000000e+000
          2.000000000000e+002 1.428571428570e+000 0.000000000000e+000
          2.000000000000e+002 2.857142857140e+000 0.000000000000e+000
[...]
      <PointData Scalars="MEAN_PRESSURE">
        <DataArray type="Float64" Name="MEAN_PRESSURE" format="ascii">
          2.000000000000e+002 1.994588005908e+002 1.994587990112e+002 2.000000000000e+002 1.994202225180e+002 1.983046170381e+002 1.975843538317e+002 1.971139104337e+002 1.968305777899e+002 1.966800355811e+002 1.966109739841e+002 1.965950807776e+002 1.966088488724e+002 1.966383309737e+002 1.966748479873e+002 1.967140089659e+002 1.967535644647e+002 1.967926107616e+002 1.968309470992e+002 1.968686398829e+002 1.969058588615e+002 1.969427254931e+002 1.969793849001e+002 1.970159108499e+002 1.970523444485e+002 1.970887046901e+002 1.971250021069e+002 1.971612345905e+002 1.971973936355e+002 1.972334729233e+002 1.972694632353e+002 1.973053578826e+002 1.973411444112e+002 1.973768162190e+002 1.974123644793e+002 1.974477794274e+002 1.974830561109e+002 1.975181826625e+002 1.975531543462e+002 1.975879654556e+002 1.976226035674e+002 1.976570588049e+002 1.976913323784e+002 1.977254119753e+002 1.977592937847e+002 1.977929692785e+002 1.978264360709e+002 1.978596752967e+002 1.978926979698e+002 1.979254836522e+002 1.979580292985e+002 1.979903317275e+002 1.980223899207e+002 1.980541782693e+002 1.980857112681e+002 1.981169772956e+002 1.981479738939e+002 1.981786855676e+002 1.982091114063e+002 1.982392618929e+002 1.982691029235e+002 1.982986463363e+002 1.983278858257e+002 1.983568225476e+002 1.983854432519e+002 1.984137461066e+002 1.984417278941e+002 1.984693810098e+002 1.984967074028e+002 1.985236954570e+002 1.985503525520e+002 1.985766610947e+002 1.986026288653e+002 1.986282463580e+002 1.986535102155e+002 1.986784226075e+002 1.987029724415e+002 1.987271677899e+002 1.987509958906e+002 1.987744588031e+002 1.987975469390e+002 1.988202694829e+002 1.988426137738e+002 1.988645850023e+002 1.988861749008e+002 1.989073832111e+002 1.989282105225e+002 1.989486525141e+002 1.989687075195e+002 1.989883746357e+002 1.990076521457e+002 1.990265392111e+002 1.990450345437e+002 1.990631338432e+002 1.990808339999e+002 1.990981426421e+002 1.991150490794e+002 1.991315572910e+002 1.991476668146e+002 1.991633780589e+002 1.991786860386e+002 1.991935879684e+002 1.992080918970e+002 1.992221872995e+002 1.992358786876e+002 1.992491660866e+002 1.992620503622e+002 1.992745268572e+002 1.992865931202e+002 1.992982576086e+002 1.993095099393e+002 1.993203547315e+002 1.993307932271e+002 1.993408274597e+002 1.993504503316e+002 1.993596607111e+002 1.993684679417e+002 1.993768614156e+002 1.993848458995e+002 1.993924223544e+002 1.993995933335e+002 1.994063546380e+002 1.994127028930e+002 1.994186414677e+002 1.994241697640e+002 1.994292846847e+002 1.994339947125e+002 1.994382995438e+002 1.994421881726e+002 1.994456757700e+002 1.994487592250e+002 1.994514120876e+002 1.994536619873e+002 1.994555042314e+002 1.994569599353e+002 1.994579433984e+002 1.994585763672e+002 1.994587786865e+002 1.994587582896e+002 1.994588025861e+002 1.994587936982e+002 1.994587893430e+002 1.994587813496e+002 1.994587761044e+002 1.994587797415e+002 1.994587801613e+002 1.994587701580e+002 1.994587978042e+002 1.994587557800e+002 1.994587769423e+002 1.994585749445e+002 1.994579422689e+002 1.994569589578e+002 1.994555032667e+002 1.994536612433e+002 1.994514126435e+002 1.994487610405e+002 1.994456778440e+002 1.994421901165e+002 1.994383013558e+002 1.994339951559e+002 1.994292854545e+002 1.994241695280e+002 1.994186401529e+002 1.994127019178e+002 1.994063526736e+002 1.993995908781e+002 1.993924276524e+002 1.993848502538e+002 1.993768625240e+002 1.993684676799e+002 1.993596620382e+002 1.993504468698e+002 1.993408268981e+002 1.993307962319e+002 1.993203587842e+002 1.993095099192e+002 1.992982563568e+002 1.992865907659e+002 1.992745254833e+002 1.992620484868e+002 1.992491668332e+002 1.992358800937e+002 1.992221845306e+002 1.992080901029e+002 1.991935862004e+002 1.991786855584e+002 1.991633769473e+002 1.991476678765e+002 1.991315584796e+002 1.991150460003e+002 1.990981408742e+002 1.990808327843e+002 1.990631340180e+002 1.990450342513e+002 1.990265368118e+002 1.990076531942e+002 1.989883753712e+002 1.989687078704e+002 1.989486525131e+002 1.989282116773e+002 1.989073872301e+002 1.988861781802e+002 1.988645847816e+002 1.988426176293e+002 1.988202696942e+002 1.987975477860e+002 1.987744553017e+002 1.987509972845e+002 1.987271674743e+002 1.987029764385e+002 1.986784242371e+002 1.986535114863e+002 1.986282441054e+002 1.986026265113e+002 1.985766624880e+002 1.985503512447e+002 1.985236981520e+002 1.984967060145e+002 1.984693809263e+002 1.984417252930e+002 1.984137445704e+002 1.983854436443e+002 1.983568230560e+002 1.983278889738e+002 1.982986451651e+002 1.982690983857e+002 1.982392519894e+002 1.982091119559e+002 1.981786849957e+002 1.981479722902e+002 1.981169803171e+002 1.980857134833e+002 1.980541795128e+002 1.980223823890e+002 1.979903298017e+002 1.979580271865e+002 1.979254751641e+002 1.978926916898e+002 1.978596749395e+002 1.978264296259e+002 1.977929677264e+002 1.977592872381e+002 1.977254012082e+002 1.976913181603e+002 1.976570400354e+002 1.976225755734e+002 1.975879327390e+002 1.975531167053e+002 1.975181337351e+002 1.974829943647e+002 1.974477016700e+002 1.974122646579e+002 1.973766904403e+002 1.973409862384e+002 1.973051573010e+002 1.972692100329e+002 1.972331527516e+002 1.971969878333e+002 1.971607211125e+002 1.971243547379e+002 1.970878875625e+002 1.970513097984e+002 1.970146026744e+002 1.969777294254e+002 1.969406256845e+002 1.969031911823e+002 1.968652732860e+002 1.968267029948e+002 1.967872453825e+002 1.967468281132e+002 1.967055725847e+002 1.966643268013e+002 1.966251644590e+002 1.965929804629e+002 1.965763229853e+002 1.965898185307e+002 1.966534394366e+002 1.968059172092e+002 1.970917573727e+002 1.975600532282e+002 1.982884663854e+002 1.994006317441e+002 2.000000000000e+002 2.000000000000e+002 2.000000000000e+002 2.000000000000e+002 2.000000000000e+002 2.000000000000e+002 2.000000000000e+002 2.000000000000e+002 2.000000000000e+002 2.000000000000e+002 2.000000000000e+002 2.000000000000e+002 2.000000000000e+002 1.994495678512e+002 1.966130158359e+002 1.994216311788e+002 1.993728745199e+002 1.993032232039e+002 1.992143005562e+002 1.991055788610e+002 1.969601209841e+002 1.989785813310e+002 1.972175144367e+002 1.974676062838e+002 1.977126297654e+002 1.980672874929e+002 1.982839027565e+002 1.984830767399e+002 1.986660026528e+002 1.988314788761e+002 1.967335872594e+002 1.978926963138e+002 1.989073781896e+002 1.989064130701e+002 1.987509965489e+002 1.985766616054e+002 1.983854443447e+002 1.981786869589e+002 1.994006476209e+002 1.993423129231e+002 1.992635268605e+002 1.981786814734e+002 1.983803320146e+002 1.985787699327e+002 1.987467457408e+002 1.991651889567e+002 1.990450268787e+002 1.970866890449e+002 1.973368977472e+002 1.975918664736e+002 1.990458829310e+002 1.991635263958e+002 1.992621704221e+002 1.993408168540e+002 1.993995830176e+002 1.975875831614e+002 1.973406572219e+002 1.970880699406e+002 1.994378695395e+002 1.994376111615e+002 1.978216580652e+002 1.979666940350e+002 1.966285165952e+002 1.968327576963e+002 1.994555648805e+002 1.971040432936e+002 1.994556158965e+002 1.971001928362e+002 1.966128592554e+002 1.968630704903e+002 1.977853131401e+002 1.979949203048e+002 1.994214618606e+002 1.988314820967e+002 1.993727088039e+002 1.986660113959e+002 1.984830855547e+002 1.982839097578e+002 1.980766712889e+002 1.989783915154e+002 1.993041254040e+002 1.992164366013e+002 1.991081448941e+002 1.972147224870e+002 1.974622801685e+002 1.989787717482e+002 1.991066369765e+002 1.992151825817e+002 1.993039274223e+002 1.982838559790e+002 1.984830342938e+002 1.986659616472e+002 1.993727088469e+002 1.988318845883e+002 1.994214550388e+002 1.977083878800e+002 1.974653736074e+002 1.972151329035e+002 1.969594685142e+002 1.994484065879e+002 1.994485985026e+002 1.965864762737e+002 1.969798979692e+002 1.980921093862e+002 1.976822277973e+002 1.994570994464e+002 1.976392327492e+002 1.967376154025e+002 1.966250064482e+002 1.967311340201e+002 1.978737941663e+002 1.978043991975e+002 1.979804875066e+002 1.966142593844e+002 1.968385451626e+002 1.978934385597e+002 1.994410054527e+002 1.992733195953e+002 1.993311534747e+002 1.991772034475e+002 1.993926765226e+002 1.990613618571e+002 1.987705224787e+002 1.984089961269e+002 1.982040053239e+002 1.986000919452e+002 1.971233311788e+002 1.975565322866e+002 1.973087555278e+002 1.988882387728e+002 1.978926934603e+002 1.994577527972e+002 1.981466287694e+002 1.994577527716e+002 1.981162388975e+002 1.987827960373e+002 1.986118732807e+002 1.984238401745e+002 1.982199820246e+002 1.990197752413e+002 1.988775797698e+002 1.989355971902e+002 1.991419053656e+002 1.976349927343e+002 1.992444205891e+002 1.973895101115e+002 1.993270704879e+002 1.971374905629e+002 1.993897302208e+002 1.993894419097e+002 1.994091360249e+002 1.993266679851e+002 1.993539862336e+002 1.992431877752e+002 1.992784346611e+002 1.991404079449e+002 1.991835078571e+002 1.971429217494e+002 1.990687417030e+002 1.990197220560e+002 1.973929507734e+002 1.972938006152e+002 1.982201405705e+002 1.984249821321e+002 1.986139308793e+002 1.983474696543e+002 1.985416286427e+002 1.987817619285e+002 1.987193554651e+002 1.975506387042e+002 1.989356513384e+002 1.988816523345e+002 1.994086817754e+002 1.970381971209e+002 1.993523756454e+002 1.972976030258e+002 1.992770956820e+002 1.975457575396e+002 1.991818518486e+002 1.981318396591e+002 1.983435382257e+002 1.985381207565e+002 1.987156397312e+002 1.990668892213e+002 1.967155602269e+002 1.994320646928e+002 1.994318551801e+002 1.980010512755e+002 1.977781341645e+002 1.968829191289e+002 1.989338277811e+002 1.985424095860e+002 1.987204711025e+002 1.983488074029e+002 1.981324693173e+002 1.970409783073e+002 1.973865141219e+002 1.994082813364e+002 1.976329046309e+002 1.993530033702e+002 1.992455589797e+002 1.990214016366e+002 1.991432870175e+002 1.970514580965e+002 1.994423303732e+002 1.994423296242e+002 1.979441104094e+002 1.965933395169e+002 1.994325087625e+002 1.989504794826e+002 1.990062191698e+002 1.991303089057e+002 1.976576656473e+002 1.992348461009e+002 1.974150105938e+002 1.983257154586e+002 1.985216911894e+002 1.987011543401e+002 1.994128196795e+002 1.970143497400e+002 1.993603490143e+002 1.968127499538e+002 1.981196167037e+002 1.994535673972e+002 1.994533157359e+002 1.994286809659e+002 1.981519101773e+002 1.976183074130e+002 1.980261389114e+002 1.977542817627e+002 1.967970442004e+002 1.969098241100e+002 1.965781518066e+002 1.966537837041e+002 1.969105393304e+002 1.987964620505e+002 1.986274409808e+002 1.984408441029e+002 1.982383026447e+002 1.993209089950e+002 1.971590145195e+002 1.993852670782e+002 1.988636899484e+002 1.990803607065e+002 1.993199306731e+002 1.991942186860e+002 1.993845428716e+002 1.992870992100e+002 1.987991932327e+002 1.986273706119e+002 1.984428847435e+002 1.982405022486e+002 1.971626012245e+002 1.975191666409e+002 1.972678857021e+002 1.972677787400e+002 1.992870910058e+002 1.975166794993e+002 1.991941987623e+002 1.990815607566e+002 1.988636718846e+002 1.994578571438e+002 1.994579177197e+002 1.982413553911e+002 1.981302324537e+002 1.994540278115e+002 1.968487761845e+002 1.994456471236e+002 1.994462168260e+002 1.966784361152e+002 1.994520024042e+002 1.965898877970e+002 1.968872159040e+002 1.977456396317e+002 1.980358750294e+002 1.969312509908e+002 1.965961389281e+002 1.977226234341e+002 1.967953803968e+002 1.967887597476e+002 1.980580824783e+002 1.966872776757e+002 1.978074311960e+002 1.979405622632e+002 1.966600761615e+002 1.974040857228e+002 1.990131247182e+002 1.991353480716e+002 1.992390112320e+002 1.993586453942e+002 1.994120645530e+002 1.989428389494e+002 1.981235459895e+002 1.983338365442e+002 1.985291805842e+002 1.987079568055e+002 1.978429765866e+002 1.967954637667e+002 1.979473311060e+002 1.978339213295e+002 1.994299204018e+002 1.994512361926e+002 1.970245893498e+002 1.976414725763e+002 1.967216906498e+002 1.969969891229e+002 1.994551165350e+002 1.966764689469e+002 1.988191996071e+002 1.986523204510e+002 1.984680794318e+002 1.982676942433e+002 1.989878948115e+002 1.989691802338e+002 1.988439953557e+002 1.991158205333e+002 1.992228266488e+002 1.976897100545e+002 1.993100161927e+002 1.974460391640e+002 1.993772333455e+002 1.971953000211e+002 1.994184985063e+002 1.993769473982e+002 1.993101946990e+002 1.992232543982e+002 1.991163337407e+002 1.971951059824e+002 1.974450136651e+002 1.982687788562e+002 1.984678625757e+002 1.986521229813e+002 1.994183625250e+002 1.969795238322e+002 1.980886995077e+002 1.994218750868e+002 1.994472067861e+002 1.994472095072e+002 1.969970623001e+002 1.969008413486e+002 1.965770747094e+002 1.979284773930e+002 1.994033890928e+002 1.993462115458e+002 1.992549453573e+002 1.991547047252e+002 1.990331799029e+002 1.970679709573e+002 1.973608685162e+002 1.976071869862e+002 1.987385782268e+002 1.983705136931e+002 1.981629155667e+002 1.985597803828e+002 1.989208233782e+002 1.994355164434e+002 1.994560595271e+002 1.994560607672e+002 1.993712719109e+002 1.992174347339e+002 1.991093427126e+002 1.974597653772e+002 1.982889276601e+002 1.984877255070e+002 1.986702393956e+002 1.972436232976e+002 1.978575861521e+002 1.989822504698e+002 1.989750154051e+002 1.980759484883e+002 1.994583275444e+002 1.987862083088e+002 1.976658143973e+002 1.981098605097e+002 1.990443458473e+002 1.991627928221e+002 1.992615702316e+002 1.993995856654e+002 1.993408421487e+002 1.975892208093e+002 1.973423182196e+002 1.970879121170e+002 1.985766599255e+002 1.987509953973e+002 1.981786818060e+002 1.983854413034e+002 1.993995813787e+002 1.993408205738e+002 1.983854343977e+002 1.985771075921e+002 1.992620386070e+002 1.987512060607e+002 1.991633674243e+002 1.990451965652e+002 1.973411364427e+002 1.989081600845e+002 1.989073771464e+002 1.967714891213e+002 1.977549049081e+002 1.967577942437e+002 1.981353384819e+002 1.979009579394e+002 1.994433679966e+002 1.994430153247e+002 1.979895521906e+002 1.980077677862e+002 1.979160856370e+002 1.989967440166e+002 1.988105047536e+002 1.988521457007e+002 1.989600962752e+002 1.986890629246e+002 1.985083973360e+002 1.983113047770e+002 1.990907168588e+002 1.972490119182e+002 1.974982367812e+002 1.993652846439e+002 1.992932676289e+002 1.992018766670e+002 1.993647150061e+002 1.972487393304e+002 1.992932711258e+002 1.974981836987e+002 1.983113074628e+002 1.985084000237e+002 1.986856457926e+002 1.992018791147e+002 1.990907181385e+002 1.973707486213e+002 1.965822158182e+002 1.994563056775e+002 1.973255004540e+002 1.988322994138e+002 1.988306643610e+002 1.972143198315e+002 1.972138747966e+002 1.993043357300e+002 1.993042414541e+002 1.994528644370e+002 1.966862027325e+002 1.966735046048e+002 1.969818013668e+002 1.967277760782e+002 1.994583660193e+002 1.988871220838e+002 1.994583904251e+002 1.988081944131e+002 1.966316096147e+002 1.994262383337e+002 1.994263363916e+002 1.991061629838e+002 1.992147871859e+002 1.974663811199e+002 1.986649158960e+002 1.982826102886e+002 1.984818813455e+002 1.993727931082e+002 1.968565942534e+002 1.968638152567e+002 1.965850463870e+002 1.980420735658e+002 1.977386665942e+002 1.965917169581e+002 1.969265726538e+002 1.970968712066e+002 1.978002039314e+002 1.968915671117e+002 1.994373334389e+002 1.994373340462e+002 1.977752968606e+002 1.980182101130e+002 1.994318570477e+002 1.976827295161e+002 1.980239678892e+002 1.979866263360e+002 1.993533575811e+002 1.970386150563e+002 1.994086204564e+002 1.983260076028e+002 1.985214737721e+002 1.987013986533e+002 1.989516925950e+002 1.973908103049e+002 1.992439412931e+002 1.976359178810e+002 1.991413238194e+002 1.990047717991e+002 1.994213075875e+002 1.967898365713e+002 1.979445972037e+002 1.978662965836e+002 1.977074005587e+002 1.966326655789e+002 1.994584285963e+002 1.989668932853e+002 1.994584300778e+002 1.990549869544e+002 1.967307255859e+002 1.969613295121e+002 1.978876306594e+002 1.978012491952e+002 1.994530709098e+002 1.975755601574e+002 1.981875286928e+002 1.968604086324e+002 1.980464044779e+002 1.966998878324e+002 1.990681807390e+002 1.991829401345e+002 1.992779782558e+002 1.975432034768e+002 1.972949983987e+002 1.992879763222e+002 1.993840239487e+002 1.991953092188e+002 1.993192545405e+002 1.990828919812e+002 1.972651851420e+002 1.975140434700e+002 1.971650892649e+002 1.982424118947e+002 1.986312324321e+002 1.984445977205e+002 1.988002417795e+002 1.993892536048e+002 1.993264163376e+002 1.971398408374e+002 1.988800699192e+002 1.982176841621e+002 1.984217048352e+002 1.986099168366e+002 1.987810293221e+002 1.988623331618e+002 1.989073807524e+002 1.987509816841e+002 1.983854319039e+002 1.985766585432e+002 1.981786766688e+002 1.993995889130e+002 1.993408221214e+002 1.992622230458e+002 1.990450303542e+002 1.991635920907e+002 1.970885884035e+002 1.973405625683e+002 1.975879082603e+002 1.977354375208e+002 1.969151453520e+002 1.994527042886e+002 1.967283316527e+002 1.988597483955e+002 1.988026056866e+002 1.986334618062e+002 1.984474344637e+002 1.982454102344e+002 1.993175857284e+002 1.993828567802e+002 1.971702894201e+002 1.992891910561e+002 1.991965246704e+002 1.990841788004e+002 1.972613616393e+002 1.975114150529e+002 1.978815581006e+002 1.994378726803e+002 1.978550351816e+002 1.994408861791e+002 1.989045798096e+002 1.989091930265e+002 1.987560808071e+002 1.985822029716e+002 1.983915709876e+002 1.981852711164e+002 1.993986589026e+002 1.993395119494e+002 1.992596977882e+002 1.991605055731e+002 1.990474511103e+002 1.973477085283e+002 1.990434517539e+002 1.983892171061e+002 1.985731828728e+002 1.987541293344e+002 1.991623586673e+002 1.992612142282e+002 1.975901837795e+002 1.993409420960e+002 1.973433210969e+002 1.993996715365e+002 1.970874973115e+002 1.967347020781e+002 1.993325337378e+002 1.971183408862e+002 1.993936720214e+002 1.984075433773e+002 1.987693215444e+002 1.985983194323e+002 1.982024422359e+002 1.973137269881e+002 1.992715819083e+002 1.975613941083e+002 1.991750696667e+002 1.990585012573e+002 1.988916519136e+002 1.966309252012e+002 1.994583984474e+002 1.989046407975e+002 1.994451483250e+002 1.994508267254e+002 1.994508240133e+002 1.978476072043e+002 1.979373038598e+002 1.968487003166e+002 1.970936994965e+002 1.994289407900e+002 1.966325292989e+002 1.994373098500e+002 1.994371922532e+002 1.969498083963e+002 1.990040765762e+002 1.991287542964e+002 1.976617530632e+002 1.992335596467e+002 1.974184003634e+002 1.987031444604e+002 1.985217170506e+002 1.983280945238e+002 1.989513630590e+002 1.994136981338e+002 1.970056220811e+002 1.993612021471e+002 1.977061448096e+002 1.980732070953e+002 1.978254363107e+002 1.966257690556e+002 1.965963728884e+002 1.994572858929e+002 1.977904327207e+002 1.994572854510e+002 1.977319215928e+002 1.981895936943e+002 1.975765350717e+002 1.981094833900e+002 1.966555509184e+002 1.994160427782e+002 1.973161907519e+002 1.977822648935e+002 1.979715626295e+002 1.978199727414e+002 1.968373159958e+002 1.966231157768e+002 1.967437305926e+002 1.976276109496e+002 1.966218386647e+002 1.967860318566e+002 1.978405590281e+002 1.965887411659e+002 1.965976078830e+002 1.979114627172e+002 1.977631038133e+002 1.979783954092e+002 1.977964252841e+002 1.994485858422e+002 1.968340731808e+002 1.970291655096e+002 1.989234005902e+002 1.989589757416e+002 1.994158723756e+002 1.993644887965e+002 1.994054702321e+002 1.993487510021e+002 1.992338928531e+002 1.991291540017e+002 1.974176196931e+002 1.990308909353e+002 1.989978300732e+002 1.981496140337e+002 1.981052807391e+002 1.983587030022e+002 1.983133952680e+002 1.985103271724e+002 1.985521169273e+002 1.987286468975e+002 1.986907459732e+002 1.970696185771e+002 1.994554797495e+002 1.994554510550e+002 1.994571603969e+002 1.994571611702e+002 1.974299955454e+002 1.994566995348e+002 1.987859065893e+002 1.986153222622e+002 1.984276043603e+002 1.982240344062e+002 1.988755069880e+002 1.989383567639e+002 1.990172614442e+002 1.991397606684e+002 1.976396204773e+002 1.992426544233e+002 1.973942782217e+002 1.993256881627e+002 1.971423340422e+002 1.993887314099e+002 1.993887167889e+002 1.993256668549e+002 1.994095774732e+002 1.992425720259e+002 1.991396610873e+0