<?xml version="1.0"?>
<VTKFile type="UnstructuredGrid" version="0.1" byte_order="LittleEndian">
  <UnstructuredGrid>
    <Piece NumberOfPoints="2604" NumberOfCells="4910">
      <Points>
        <DataArray type="Float64" NumberOfComponents="3" format="ascii">
          0.000000000000e+000 0.000000000000e+000 0.000000000000e+000
          2.000000000000e+002 0.000000000000e+000 0.000000000000e+000
          2.000000000000e+002 2.000000000000e+001 0.000000000000e+000
          0.000000000000e+000 2.000000000000e+001 0.000000000000e+000
          1.492537313427e+000 0.000000000000e+000 0.000000000000e+000
          2.985074626854e+000 0.000000000000e+000 0.000000000000e+000
          4.477611940281e+000 0.000000000000e+000 0.000000000000e+000
          5.970149253708e+000 0.000000000000e+000 0.000000000000e+000
          7.462686567135e+000 0.000000000000e+000 0.000000000000e+000
          8.955223880561e+000 0.000000000000e+000 0.000000000000e+000
          1.044776119399e+001 0.000000000000e+000 0.000000000000e+000
          1.194029850741e+001 0.000000000000e+000 0.000000000000e+000
          1.343283582084e+001 0.000000000000e+000 0.000000000000e+000
          1.492537313427e+001 0.000000000000e+000 0.000000000000e+000
          1.641791044770e+001 0.000000000000e+000 0.000000000000e+000
          1.791044776112e+001 0.000000000000e+000 0.000000000000e+000
          1.940298507455e+001 0.000000000000e+000 0.000000000000e+000
          2.089552238798e+001 0.000000000000e+000 0.000000000000e+000
          2.238805970141e+001 0.000000000000e+000 0.000000000000e+000
          2.388059701484e+001 0.000000000000e+000 0.000000000000e+000
          2.537313432826e+001 0.000000000000e+000 0.000000000000e+000
          2.686567164169e+001 0.000000000000e+000 0.000000000000e+000
          2.835820895511e+001 0.000000000000e+000 0.000000000000e+000
          2.985074626854e+001 0.000000000000e+000 0.000000000000e+000
          3.134328358196e+001 0.000000000000e+000 0.000000000000e+000
          3.283582089539e+001 0.000000000000e+000 0.000000000000e+000
          3.432835820881e+001 0.000000000000e+000 0.000000000000e+000
          3.582089552224e+001 0.000000000000e+000 0.000000000000e+000
          3.731343283566e+001 0.000000000000e+000 0.000000000000e+000
          3.880597014909e+001 0.000000000000e+000 0.000000000000e+000
          4.029850746251e+001 0.000000000000e+000 0.000000000000e+000
          4.179104477594e+001 0.000000000000e+000 0.000000000000e+000
          4.328358208936e+001 0.000000000000e+000 0.000000000000e+000
          4.477611940279e+001 0.000000000000e+000 0.000000000000e+000
          4.626865671621e+001 0.000000000000e+000 0.000000000000e+000
          4.776119402964e+001 0.000000000000e+000 0.000000000000e+000
          4.925373134306e+001 0.000000000000e+000 0.000000000000e+000
          5.074626865649e+001 0.000000000000e+000 0.000000000000e+000
          5.223880596991e+001 0.000000000000e+000 0.000000000000e+000
          5.373134328334e+001 0.000000000000e+000 0.000000000000e+000
          5.522388059676e+001 0.000000000000e+000 0.000000000000e+000
          5.671641791019e+001 0.000000000000e+000 0.000000000000e+000
          5.820895522361e+001 0.000000000000e+000 0.000000000000e+000
          5.970149253704e+001 0.000000000000e+000 0.000000000000e+000
          6.119402985046e+001 0.000000000000e+000 0.000000000000e+000
          6.268656716389e+001 0.000000000000e+000 0.000000000000e+000
          6.417910447732e+001 0.000000000000e+000 0.000000000000e+000
          6.567164179075e+001 0.000000000000e+000 0.000000000000e+000
          6.716417910418e+001 0.000000000000e+000 0.000000000000e+000
          6.865671641761e+001 0.000000000000e+000 0.000000000000e+000
          7.014925373104e+001 0.000000000000e+000 0.000000000000e+000
          7.164179104447e+001 0.000000000000e+000 0.000000000000e+000
          7.313432835790e+001 0.000000000000e+000 0.000000000000e+000
          7.462686567133e+001 0.000000000000e+000 0.000000000000e+000
          7.611940298476e+001 0.000000000000e+000 0.000000000000e+000
          7.761194029819e+001 0.000000000000e+000 0.000000000000e+000
          7.910447761162e+001 0.000000000000e+000 0.000000000000e+000
          8.059701492505e+001 0.000000000000e+000 0.000000000000e+000
          8.208955223848e+001 0.000000000000e+000 0.000000000000e+000
          8.358208955191e+001 0.000000000000e+000 0.000000000000e+000
          8.507462686534e+001 0.000000000000e+000 0.000000000000e+000
          8.656716417877e+001 0.000000000000e+000 0.000000000000e+000
          8.805970149220e+001 0.000000000000e+000 0.000000000000e+000
          8.955223880563e+001 0.000000000000e+000 0.000000000000e+000
          9.104477611907e+001 0.000000000000e+000 0.000000000000e+000
          9.253731343250e+001 0.000000000000e+000 0.000000000000e+000
          9.402985074593e+001 0.000000000000e+000 0.000000000000e+000
          9.552238805936e+001 0.000000000000e+000 0.000000000000e+000
          9.701492537279e+001 0.000000000000e+000 0.000000000000e+000
          9.850746268622e+001 0.000000000000e+000 0.000000000000e+000
          9.999999999965e+001 0.000000000000e+000 0.000000000000e+000
          1.014925373131e+002 0.000000000000e+000 0.000000000000e+000
          1.029850746265e+002 0.000000000000e+000 0.000000000000e+000
          1.044776119399e+002 0.000000000000e+000 0.000000000000e+000
          1.059701492534e+002 0.000000000000e+000 0.000000000000e+000
          1.074626865668e+002 0.000000000000e+000 0.000000000000e+000
          1.089552238802e+002 0.000000000000e+000 0.000000000000e+000
          1.104477611937e+002 0.000000000000e+000 0.000000000000e+000
          1.119402985071e+002 0.000000000000e+000 0.000000000000e+000
          1.134328358205e+002 0.000000000000e+000 0.000000000000e+000
          1.149253731340e+002 0.000000000000e+000 0.000000000000e+000
          1.164179104474e+002 0.000000000000e+000 0.000000000000e+000
          1.179104477608e+002 0.000000000000e+000 0.000000000000e+000
          1.194029850742e+002 0.000000000000e+000 0.000000000000e+000
          1.208955223877e+002 0.000000000000e+000 0.000000000000e+000
          1.223880597011e+002 0.000000000000e+000 0.000000000000e+000
          1.238805970145e+002 0.000000000000e+000 0.000000000000e+000
          1.253731343280e+002 0.000000000000e+000 0.000000000000e+000
          1.268656716414e+002 0.000000000000e+000 0.000000000000e+000
          1.283582089548e+002 0.000000000000e+000 0.000000000000e+000
          1.298507462683e+002 0.000000000000e+000 0.000000000000e+000
          1.313432835817e+002 0.000000000000e+000 0.000000000000e+000
          1.328358208952e+002 0.000000000000e+000 0.000000000000e+000
          1.343283582086e+002 0.000000000000e+000 0.000000000000e+000
          1.358208955220e+002 0.000000000000e+000 0.000000000000e+000
          1.373134328355e+002 0.000000000000e+000 0.000000000000e+000
          1.388059701489e+002 0.000000000000e+000 0.000000000000e+000
          1.402985074624e+002 0.000000000000e+000 0.000000000000e+000
          1.417910447758e+002 0.000000000000e+000 0.000000000000e+000
          1.432835820892e+002 0.000000000000e+000 0.000000000000e+000
          1.447761194027e+002 0.000000000000e+000 0.000000000000e+000
          1.462686567161e+002 0.000000000000e+000 0.000000000000e+000
          1.477611940296e+002 0.000000000000e+000 0.000000000000e+000
          1.492537313430e+002 0.000000000000e+000 0.000000000000e+000
          1.507462686564e+002 0.000000000000e+000 0.000000000000e+000
          1.522388059699e+002 0.000000000000e+000 0.000000000000e+000
          1.537313432833e+002 0.000000000000e+000 0.000000000000e+000
          1.552238805968e+002 0.000000000000e+000 0.000000000000e+000
          1.567164179102e+002 0.000000000000e+000 0.000000000000e+000
          1.582089552237e+002 0.000000000000e+000 0.000000000000e+000
          1.597014925371e+002 0.000000000000e+000 0.000000000000e+000
          1.611940298505e+002 0.000000000000e+000 0.000000000000e+000
          1.626865671640e+002 0.000000000000e+000 0.000000000000e+000
          1.641791044774e+002 0.000000000000e+000 0.000000000000e+000
          1.656716417909e+002 0.000000000000e+000 0.000000000000e+000
          1.671641791043e+002 0.000000000000e+000 0.000000000000e+000
          1.686567164177e+002 0.000000000000e+000 0.000000000000e+000
          1.701492537312e+002 0.000000000000e+000 0.000000000000e+000
          1.716417910446e+002 0.000000000000e+000 0.000000000000e+000
          1.731343283581e+002 0.000000000000e+000 0.000000000000e+000
          1.746268656715e+002 0.000000000000e+000 0.000000000000e+000
          1.761194029849e+002 0.000000000000e+000 0.000000000000e+000
          1.776119402984e+002 0.000000000000e+000 0.000000000000e+000
          1.791044776118e+002 0.000000000000e+000 0.000000000000e+000
          1.805970149253e+002 0.000000000000e+000 0.000000000000e+000
          1.820895522387e+002 0.000000000000e+000 0.000000000000e+000
          1.835820895521e+002 0.000000000000e+000 0.000000000000e+000
          1.850746268656e+002 0.000000000000e+000 0.000000000000e+000
          1.865671641790e+002 0.000000000000e+000 0.000000000000e+000
          1.880597014925e+002 0.000000000000e+000 0.000000000000e+000
          1.895522388059e+002 0.000000000000e+000 0.000000000000e+000
          1.910447761194e+002 0.000000000000e+000 0.000000000000e+000
          1.925373134328e+002 0.000000000000e+000 0.000000000000e+000
          1.940298507462e+002 0.000000000000e+000 0.000000000000e+000
          1.955223880597e+002 0.000000000000e+000 0.000000000000e+000
          1.970149253731e+002 0.000000000000e+000 0.000000000000e+000
          1.985074626866e+002 0.000000000000e+000 0.000000000000e+000
          2.000000000000e+002 1.428571428570e+000 0.000000000000e+000
          2.000000000000e+002 2.857142857140e+000 0.000000000000e+000
[...]
      <PointData Scalars="MEAN_PRESSURE">
        <DataArray type="Float64" Name="MEAN_PRESSURE" format="ascii">
          2.000000000000e+002 1.993884182143e+002 1.993884166382e+002 2.000000000000e+002 1.994394632485e+002 1.983494662907e+002 1.976378107289e+002 1.971653218879e+002 1.968740168286e+002 1.967134843813e+002 1.966348726909e+002 1.966111040074e+002 1.966189703174e+002 1.966443585178e+002 1.966781109880e+002 1.967154196236e+002 1.967536317160e+002 1.967915711615e+002 1.968288672963e+002 1.968654978852e+002 1.969015992578e+002 1.969372842089e+002 1.969727105536e+002 1.970079660362e+002 1.970431050049e+002 1.970781566735e+002 1.971131393498e+002 1.971480564385e+002 1.971829031671e+002 1.972176756185e+002 1.972523662429e+002 1.972869692781e+002 1.973214734291e+002 1.973558726609e+002 1.973901588087e+002 1.974243228250e+002 1.974583600650e+002 1.974922595377e+002 1.975260167837e+002 1.975596264544e+002 1.975930770276e+002 1.976263592897e+002 1.976594742471e+002 1.976924104379e+002 1.977251642265e+002 1.977577276198e+002 1.977900982868e+002 1.978222586554e+002 1.978542187635e+002 1.978859595552e+002 1.979174780500e+002 1.979487711325e+002 1.979798376938e+002 1.980106537829e+002 1.980412326647e+002 1.980715633536e+002 1.981016433659e+002 1.981314580628e+002 1.981610063689e+002 1.981902978478e+002 1.982193004360e+002 1.982480249305e+002 1.982764651890e+002 1.983046220421e+002 1.983324828142e+002 1.983600455132e+002 1.983873068399e+002 1.984142593564e+002 1.984409045992e+002 1.984672313322e+002 1.984932461969e+002 1.985189322826e+002 1.985442966060e+002 1.985693298556e+002 1.985940285058e+002 1.986183942658e+002 1.986424162688e+002 1.986661018174e+002 1.986894384239e+002 1.987124276720e+002 1.987350600561e+002 1.987573439400e+002 1.987792668648e+002 1.988008333924e+002 1.988220352253e+002 1.988428717034e+002 1.988633429913e+002 1.988834445358e+002 1.989031743251e+002 1.989225310736e+002 1.989415127164e+002 1.989601180261e+002 1.989783453437e+002 1.989961900927e+002 1.990136488416e+002 1.990307285447e+002 1.990474184304e+002 1.990637219326e+002 1.990796381825e+002 1.990951671629e+002 1.991103036061e+002 1.991250443828e+002 1.991393969251e+002 1.991533505603e+002 1.991669092895e+002 1.991800727388e+002 1.991928413660e+002 1.992052102183e+002 1.992171765068e+002 1.992287481556e+002 1.992399145987e+002 1.992506800154e+002 1.992610452768e+002 1.992710120464e+002 1.992805729899e+002 1.992897266617e+002 1.992984819719e+002 1.993068281349e+002 1.993147695691e+002 1.993223069435e+002 1.993294425192e+002 1.993361718783e+002 1.993424914259e+002 1.993484042668e+002 1.993539095871e+002 1.993590041017e+002 1.993636960497e+002 1.993679849567e+002 1.993718597087e+002 1.993753352587e+002 1.993784083806e+002 1.993810526073e+002 1.993832953520e+002 1.993851318564e+002 1.993865830985e+002 1.993875635904e+002 1.993881946599e+002 1.993883963753e+002 1.993883760394e+002 1.993884202036e+002 1.993884113422e+002 1.993884069997e+002 1.993883990303e+002 1.993883938007e+002 1.993883974269e+002 1.993883978453e+002 1.993883878718e+002 1.993884154351e+002 1.993883735363e+002 1.993883946353e+002 1.993881932404e+002 1.993875624632e+002 1.993865821230e+002 1.993851308938e+002 1.993832946093e+002 1.993810531599e+002 1.993784101879e+002 1.993753373229e+002 1.993718616425e+002 1.993679867581e+002 1.993636964888e+002 1.993590048649e+002 1.993539093504e+002 1.993484029581e+002 1.993424904554e+002 1.993361699266e+002 1.993294400817e+002 1.993223121919e+002 1.993147738800e+002 1.993068292312e+002 1.992984817108e+002 1.992897279681e+002 1.992805695662e+002 1.992710114846e+002 1.992610482333e+002 1.992506840029e+002 1.992399145769e+002 1.992287469218e+002 1.992171741883e+002 1.992052088627e+002 1.991928395206e+002 1.991800734655e+002 1.991669106596e+002 1.991533478492e+002 1.991393951684e+002 1.991250426530e+002 1.991103031342e+002 1.990951660797e+002 1.990796392178e+002 1.990637230897e+002 1.990474154461e+002 1.990307268337e+002 1.990136476671e+002 1.989961902657e+002 1.989783450667e+002 1.989601157158e+002 1.989415137322e+002 1.989225317872e+002 1.989031746669e+002 1.988834445376e+002 1.988633441002e+002 1.988428755557e+002 1.988220383657e+002 1.988008331825e+002 1.987792705511e+002 1.987573441449e+002 1.987350608634e+002 1.987124243353e+002 1.986894397446e+002 1.986661015111e+002 1.986424200566e+002 1.986183958050e+002 1.985940297033e+002 1.985693277163e+002 1.985442943729e+002 1.985189335905e+002 1.984932449542e+002 1.984672338630e+002 1.984409032832e+002 1.984142592692e+002 1.983873043863e+002 1.983600440619e+002 1.983324831729e+002 1.983046225081e+002 1.982764681269e+002 1.982480238256e+002 1.982192961853e+002 1.981902885891e+002 1.981610068655e+002 1.981314575091e+002 1.981016418461e+002 1.980715661300e+002 1.980412346797e+002 1.980106548807e+002 1.979798306299e+002 1.979487692536e+002 1.979174759742e+002 1.978859515401e+002 1.978542127513e+002 1.978222580696e+002 1.977900920020e+002 1.977577257642e+002 1.977251576457e+002 1.976923998179e+002 1.976594602617e+002 1.976263408766e+002 1.975930498207e+002 1.975595945239e+002 1.975259798326e+002 1.974922115921e+002 1.974582995560e+002 1.974242466030e+002 1.973900610555e+002 1.973557494651e+002 1.973213184525e+002 1.972867727642e+002 1.972521181531e+002 1.972173619160e+002 1.971825055611e+002 1.971475532827e+002 1.971125049160e+002 1.970773558163e+002 1.970420909633e+002 1.970066838793e+002 1.969710872866e+002 1.969352238889e+002 1.968989808206e+002 1.968621961080e+002 1.968247090584e+002 1.967863185293e+002 1.967470429531e+002 1.967071806190e+002 1.966678572936e+002 1.966315154725e+002 1.966035678129e+002 1.965929640982e+002 1.966145090599e+002 1.966877938905e+002 1.968503298592e+002 1.971440724462e+002 1.976144850341e+002 1.983340457296e+002 1.994205264540e+002 2.000000000000e+002 2.000000000000e+002 2.000000000000e+002 2.000000000000e+002 2.000000000000e+002 2.000000000000e+002 2.000000000000e+002 2.000000000000e+002 2.000000000000e+002 2.000000000000e+002 2.000000000000e+002 2.000000000000e+002 2.000000000000e+002 1.993792143572e+002 1.966412910688e+002 1.993513814736e+002 1.993028635233e+002 1.992336754624e+002 1.991455425739e+002 1.990380687958e+002 1.969540873741e+002 1.989128914360e+002 1.972022918310e+002 1.974434518046e+002 1.976800561861e+002 1.980233649748e+002 1.982336889747e+002 1.984276125859e+002 1.986062457276e+002 1.987683409667e+002 1.967342471106e+002 1.978542171569e+002 1.988428668863e+002 1.988419182544e+002 1.986894390454e+002 1.985189327630e+002 1.983324838363e+002 1.981314593469e+002 1.993304916983e+002 1.992724877119e+002 1.991943050311e+002 1.981314542434e+002 1.983275067312e+002 1.985209916754e+002 1.986852754144e+002 1.990969576199e+002 1.989783379484e+002 1.970762106532e+002 1.973173781956e+002 1.975633934817e+002 1.989791816216e+002 1.990953139462e+002 1.991929604598e+002 1.992710015813e+002 1.993294322874e+002 1.975592572490e+002 1.973210018775e+002 1.970775343966e+002 1.993675565224e+002 1.993672990885e+002 1.977854764447e+002 1.979258710739e+002 1.966347645673e+002 1.968306025136e+002 1.993851923168e+002 1.971562546523e+002 1.993852431779e+002 1.971535228538e+002 1.966216932772e+002 1.968600813503e+002 1.977503230447e+002 1.979532169723e+002 1.993512128054e+002 1.987683440389e+002 1.993026986996e+002 1.986062540102e+002 1.984276208789e+002 1.982336955146e+002 1.980324650513e+002 1.989127045957e+002 1.992345708513e+002 1.991476571696e+002 1.990406019404e+002 1.971996031517e+002 1.974383131646e+002 1.989130788568e+002 1.990391133685e+002 1.991464157399e+002 1.992343743127e+002 1.982336436998e+002 1.984275713412e+002 1.986062058077e+002 1.993026987489e+002 1.987687391103e+002 1.993512060279e+002 1.976759561517e+002 1.974412972051e+002 1.971999945975e+002 1.969534471707e+002 1.993780569147e+002 1.993782481932e+002 1.966109958966e+002 1.969732041157e+002 1.980474385648e+002 1.976506765086e+002 1.993867221888e+002 1.976931146186e+002 1.967381615259e+002 1.966525713139e+002 1.967318404413e+002 1.978359221515e+002 1.977687820591e+002 1.979392336181e+002 1.966223795769e+002 1.968362390320e+002 1.978549356743e+002 1.993706811529e+002 1.992040132555e+002 1.992614031918e+002 1.991088374500e+002 1.993225599030e+002 1.989944431328e+002 1.987085704863e+002 1.983554193193e+002 1.981560470412e+002 1.985418187108e+002 1.971115237374e+002 1.975292779039e+002 1.972902434833e+002 1.988240630697e+002 1.978542144609e+002 1.993873735630e+002 1.981942268376e+002 1.993873735363e+002 1.981647467538e+002 1.987205994981e+002 1.985533293222e+002 1.983698787530e+002 1.981715663963e+002 1.989534543042e+002 1.988135934745e+002 1.988706059079e+002 1.990739452947e+002 1.976050435519e+002 1.991753710932e+002 1.973681137218e+002 1.992573484011e+002 1.971251654757e+002 1.993196285527e+002 1.993193416560e+002 1.993389405734e+002 1.992569485768e+002 1.992840869270e+002 1.991741496104e+002 1.992090853835e+002 1.990724656105e+002 1.991150728911e+002 1.971304078035e+002 1.990017208845e+002 1.989534019418e+002 1.973714335235e+002 1.972758273137e+002 1.981717196208e+002 1.983709908730e+002 1.985553397615e+002 1.982955203458e+002 1.984847315337e+002 1.987195858319e+002 1.986584532794e+002 1.975235882252e+002 1.988706592039e+002 1.988175932706e+002 1.993384883603e+002 1.970294462849e+002 1.992824863010e+002 1.972794900416e+002 1.992077575003e+002 1.975188757736e+002 1.991134348173e+002 1.980859848228e+002 1.982916942017e+002 1.984813076066e+002 1.986548152092e+002 1.989998937764e+002 1.967168276811e+002 1.993617733688e+002 1.993615646619e+002 1.979591580671e+002 1.977433811746e+002 1.968793247414e+002 1.988688660810e+002 1.984854938589e+002 1.986595456637e+002 1.982968222948e+002 1.980865961053e+002 1.970321375061e+002 1.973652249790e+002 1.993380897696e+002 1.976030265636e+002 1.992831101227e+002 1.991764988991e+002 1.989550565221e+002 1.990753103989e+002 1.970422489953e+002 1.993720014064e+002 1.993720006622e+002 1.979039974421e+002 1.966038744028e+002 1.993622157392e+002 1.988852415549e+002 1.989401016215e+002 1.990624888000e+002 1.976269452979e+002 1.991658865335e+002 1.973927102538e+002 1.982743537377e+002 1.984652758639e+002 1.986406368530e+002 1.993426076855e+002 1.970064458636e+002 1.992904108161e+002 1.968111619845e+002 1.980741244957e+002 1.993832010548e+002 1.993829501904e+002 1.993584027332e+002 1.981054643265e+002 1.975889278758e+002 1.979834720040e+002 1.977203184922e+002 1.968415715608e+002 1.969054167081e+002 1.965938350726e+002 1.966583654087e+002 1.969061288016e+002 1.987339964009e+002 1.985685426980e+002 1.983864457672e+002 1.981893661464e+002 1.992512302518e+002 1.971459111620e+002 1.993151884958e+002 1.987999542161e+002 1.990131815121e+002 1.992502588350e+002 1.991256681822e+002 1.993144680436e+002 1.992176783914e+002 1.987366742736e+002 1.985684737871e+002 1.983884343997e+002 1.981915036891e+002 1.971493710982e+002 1.974932086586e+002 1.972508442568e+002 1.972507395786e+002 1.992176703307e+002 1.974908082788e+002 1.991256487463e+002 1.990143659481e+002 1.987999369284e+002 1.993874775936e+002 1.993875379877e+002 1.982875833915e+002 1.981789452972e+002 1.993836600305e+002 1.968945036447e+002 1.993753067029e+002 1.993758744834e+002 1.967153143390e+002 1.993816410316e+002 1.966106039023e+002 1.969330050809e+002 1.977119632955e+002 1.979929087088e+002 1.969261745185e+002 1.966101833576e+002 1.976897150151e+002 1.967942344551e+002 1.967878101435e+002 1.980144391260e+002 1.966897637319e+002 1.977717145724e+002 1.979005611374e+002 1.966638445880e+002 1.973821729538e+002 1.989469025385e+002 1.990674665174e+002 1.991700121124e+002 1.992887174070e+002 1.993418558885e+002 1.988777266010e+002 1.980779368901e+002 1.982822545623e+002 1.984725833965e+002 1.986472947056e+002 1.978061009707e+002 1.967943252045e+002 1.979071163905e+002 1.977973394872e+002 1.993596373212e+002 1.993808772825e+002 1.970163329519e+002 1.976113027904e+002 1.967599125915e+002 1.970481308491e+002 1.993847453588e+002 1.966794313130e+002 1.987562947866e+002 1.985928654460e+002 1.984129908405e+002 1.982179315934e+002 1.989220589001e+002 1.989036396618e+002 1.987806229667e+002 1.990481803912e+002 1.991539837670e+002 1.976579064746e+002 1.992404171788e+002 1.974226429210e+002 1.993071980794e+002 1.971808792205e+002 1.993482619279e+002 1.993069136695e+002 1.992405943173e+002 1.991544073305e+002 1.990486872244e+002 1.971806982687e+002 1.974216547198e+002 1.982189857911e+002 1.984127793859e+002 1.985926723014e+002 1.993481265307e+002 1.969728206626e+002 1.980441311002e+002 1.993516243355e+002 1.993768611186e+002 1.993768638280e+002 1.969897765590e+002 1.968967191219e+002 1.965976998607e+002 1.978888586925e+002 1.993332201924e+002 1.992763611870e+002 1.991857996388e+002 1.990865937523e+002 1.989666616411e+002 1.970581615313e+002 1.973404919510e+002 1.975781880040e+002 1.986772756442e+002 1.983179482971e+002 1.981161473830e+002 1.985024495883e+002 1.988560810985e+002 1.993652120768e+002 1.993856854422e+002 1.993856866792e+002 1.993012699109e+002 1.991486452830e+002 1.990417844369e+002 1.974358865823e+002 1.982385745669e+002 1.984321454259e+002 1.986103895049e+002 1.972980556442e+002 1.978202371255e+002 1.989165026100e+002 1.989093817695e+002 1.980317639636e+002 1.993879465819e+002 1.988207814755e+002 1.976348179860e+002 1.980646582909e+002 1.989776666453e+002 1.990945887283e+002 1.991923655523e+002 1.993294349137e+002 1.992710266963e+002 1.975608384792e+002 1.973226030268e+002 1.970773797039e+002 1.985189311733e+002 1.986894379497e+002 1.981314545385e+002 1.983324809798e+002 1.993294306625e+002 1.992710052469e+002 1.983324745127e+002 1.985193686599e+002 1.991928298322e+002 1.986896446777e+002 1.990951568073e+002 1.989785052680e+002 1.973214658006e+002 1.988436352360e+002 1.988428658901e+002 1.967709988151e+002 1.977209210551e+002 1.967577364075e+002 1.980893808176e+002 1.978622147036e+002 1.993730354206e+002 1.993726839764e+002 1.979480160523e+002 1.979656670080e+002 1.978768600939e+002 1.989307709958e+002 1.987477665253e+002 1.987886220028e+002 1.988947016764e+002 1.986288045442e+002 1.984523067500e+002 1.982603360283e+002 1.990234001499e+002 1.972326528294e+002 1.974730095299e+002 1.992953172390e+002 1.992237974622e+002 1.991332459385e+002 1.992947508858e+002 1.972323857225e+002 1.992238009036e+002 1.974729575345e+002 1.982603385313e+002 1.984523092721e+002 1.986254612442e+002 1.991332483312e+002 1.990234013867e+002 1.974244819724e+002 1.965958695594e+002 1.993859308416e+002 1.973796165630e+002 1.987691459377e+002 1.987675417511e+002 1.971992141184e+002 1.971987830603e+002 1.992347795257e+002 1.992346859471e+002 1.993825003208e+002 1.966886442654e+002 1.967063605003e+002 1.969750352847e+002 1.967285881483e+002 1.993879849418e+002 1.989199019075e+002 1.993880092737e+002 1.988433463090e+002 1.966379456843e+002 1.993559698137e+002 1.993560674817e+002 1.990386454043e+002 1.991460242939e+002 1.974422694838e+002 1.986051826061e+002 1.982324321681e+002 1.984264468435e+002 1.993027825479e+002 1.968537755675e+002 1.968608117615e+002 1.966011510960e+002 1.979989181157e+002 1.977052226135e+002 1.966082031370e+002 1.969216267222e+002 1.970860275224e+002 1.977647245975e+002 1.968877188025e+002 1.993670223616e+002 1.993670229640e+002 1.977406375160e+002 1.979757870291e+002 1.993615665014e+002 1.976511612949e+002 1.979813677751e+002 1.979451811990e+002 1.992834621668e+002 1.970298507446e+002 1.993384273448e+002 1.982746380196e+002 1.984650636966e+002 1.986408760286e+002 1.988864348424e+002 1.973693679304e+002 1.991748962526e+002 1.976059371295e+002 1.990733707062e+002 1.989386761189e+002 1.993510592173e+002 1.967888577314e+002 1.979044688143e+002 1.978286661872e+002 1.976750022100e+002 1.966385949816e+002 1.993880473305e+002 1.989974105037e+002 1.993880488085e+002 1.990827078104e+002 1.967713492948e+002 1.969552501790e+002 1.978493141033e+002 1.977657354042e+002 1.993827061414e+002 1.975476484372e+002 1.981400451715e+002 1.968574943302e+002 1.980031170757e+002 1.967018775406e+002 1.990011677432e+002 1.991145113539e+002 1.992086327578e+002 1.975164104677e+002 1.972769794572e+002 1.992185486052e+002 1.993139519699e+002 1.991267474858e+002 1.992495877294e+002 1.990156792561e+002 1.972482418527e+002 1.974882645418e+002 1.971517699041e+002 1.981933591794e+002 1.985722487948e+002 1.983901034853e+002 1.987377023641e+002 1.993191543818e+002 1.992566988127e+002 1.971274315357e+002 1.988160393758e+002 1.981693343440e+002 1.983677987822e+002 1.985514178667e+002 1.987188680394e+002 1.987986226650e+002 1.988428693441e+002 1.986894249071e+002 1.983324721714e+002 1.985189298757e+002 1.981314497599e+002 1.993294381298e+002 1.992710067714e+002 1.991930126543e+002 1.989783413042e+002 1.990953789236e+002 1.970780398912e+002 1.973209115957e+002 1.975595710982e+002 1.977021016295e+002 1.969105852926e+002 1.993823406833e+002 1.967683592084e+002 1.987960852043e+002 1.987400203340e+002 1.985744280038e+002 1.983928681448e+002 1.981962730004e+002 1.992479310323e+002 1.993127910346e+002 1.971567779625e+002 1.992197536611e+002 1.991279501773e+002 1.990169490744e+002 1.972445551343e+002 1.974857276438e+002 1.978434365302e+002 1.993675596496e+002 1.978177688756e+002 1.993705623187e+002 1.988401171163e+002 1.988446502311e+002 1.986944201489e+002 1.985243447959e+002 1.983384497020e+002 1.981378530336e+002 1.993285126335e+002 1.992697052546e+002 1.991905096515e+002 1.990923276347e+002 1.989807276886e+002 1.973278027631e+002 1.989767852609e+002 1.983361574625e+002 1.985155358255e+002 1.986925081314e+002 1.990941595910e+002 1.991920127317e+002 1.975617684539e+002 1.992711260267e+002 1.973235703276e+002 1.993295203905e+002 1.970769808044e+002 1.967353329259e+002 1.992627739296e+002 1.971067124268e+002 1.993235503574e+002 1.983540044103e+002 1.987073936037e+002 1.985400866746e+002 1.981545289170e+002 1.972950363690e+002 1.992022905237e+002 1.975339715026e+002 1.991067275438e+002 1.989916222456e+002 1.988274156435e+002 1.966608417139e+002 1.993880172722e+002 1.989364373753e+002 1.993748096143e+002 1.993804691381e+002 1.993804664368e+002 1.978105814281e+002 1.978974058605e+002 1.968460960080e+002 1.970829694950e+002 1.993586615666e+002 1.966646343824e+002 1.993669988759e+002 1.993668817083e+002 1.969441295251e+002 1.989379914451e+002 1.990609531811e+002 1.976308940651e+002 1.991646123339e+002 1.973959801801e+002 1.986425849197e+002 1.984653013494e+002 1.982766685352e+002 1.988861108252e+002 1.993434822835e+002 1.969980283266e+002 1.992912588388e+002 1.976737882186e+002 1.980291050702e+002 1.977891310812e+002 1.966331524752e+002 1.966159274055e+002 1.993869080695e+002 1.978431169200e+002 1.993869076297e+002 1.977858896790e+002 1.981420501805e+002 1.975485897388e+002 1.980642923183e+002 1.966600166322e+002 1.993458167202e+002 1.973699742407e+002 1.977473758236e+002 1.979305873218e+002 1.977838459336e+002 1.968350305967e+002 1.966297779034e+002 1.967440676134e+002 1.975979135633e+002 1.966285757747e+002 1.967851633545e+002 1.978037620618e+002 1.966133043941e+002 1.966092925290e+002 1.978723845144e+002 1.977288481543e+002 1.979372064360e+002 1.977610697172e+002 1.993782355774e+002 1.968783786875e+002 1.970207513418e+002 1.988586142829e+002 1.988935992063e+002 1.993456470353e+002 1.992945259908e+002 1.993352915396e+002 1.992788843481e+002 1.991649421445e+002 1.990613476944e+002 1.973952274965e+002 1.989644058273e+002 1.989318402911e+002 1.981032356785e+002 1.980602154701e+002 1.983064525623e+002 1.982623692662e+002 1.984541891921e+002 1.984949688631e+002 1.986675504350e+002 1.986304512897e+002 1.971223844420e+002 1.993851074471e+002 1.993850788453e+002 1.993867829525e+002 1.993867837244e+002 1.974851856225e+002 1.993863234925e+002 1.987236482494e+002 1.985566992069e+002 1.983735455964e+002 1.981755029609e+002 1.988115578872e+002 1.988733190923e+002 1.989509776204e+002 1.990718260784e+002 1.976095133701e+002 1.991736212210e+002 1.973727122523e+002 1.992559756412e+002 1.971298328874e+002 1.993186348215e+002 1.993186202606e+002 1.992559544514e+002 1.993393799900e+002 1.991735396022e+002 1.990717277145e+0