<?xml version="1.0"?>
<VTKFile type="UnstructuredGrid" version="0.1" byte_order="LittleEndian">
  <UnstructuredGrid>
    <Piece NumberOfPoints="2604" NumberOfCells="4910">
      <Points>
        <DataArray type="Float64" NumberOfComponents="3" format="ascii">
          0.000000000000e+000 0.000000000000e+000 0.000000000000e+000
          2.000000000000e+002 0.000000000000e+000 0.000000000000e+000
          2.000000000000e+002 2.000000000000e+001 0.000000000000e+000
          0.000000000000e+000 2.000000000000e+001 0.000000000000e+000
          1.492537313427e+000 0.000000000000e+000 0.000000000000e+000
          2.985074626854e+000 0.000000000000e+000 0.000000000000e+000
          4.477611940281e+000 0.000000000000e+000 0.000000000000e+000
          5.970149253708e+000 0.000000000000e+000 0.000000000000e+000
          7.462686567135e+000 0.000000000000e+000 0.000000000000e+000
          8.955223880561e+000 0.000000000000e+000 0.000000000000e+000
          1.044776119399e+001 0.000000000000e+000 0.000000000000e+000
          1.194029850741e+001 0.000000000000e+000 0.000000000000e+000
          1.343283582084e+001 0.000000000000e+000 0.000000000000e+000
          1.492537313427e+001 0.000000000000e+000 0.000000000000e+000
          1.641791044770e+001 0.000000000000e+000 0.000000000000e+000
          1.791044776112e+001 0.000000000000e+000 0.000000000000e+000
          1.940298507455e+001 0.000000000000e+000 0.000000000000e+000
          2.089552238798e+001 0.000000000000e+000 0.000000000000e+000
          2.238805970141e+001 0.000000000000e+000 0.000000000000e+000
          2.388059701484e+001 0.000000000000e+000 0.000000000000e+000
          2.537313432826e+001 0.000000000000e+000 0.000000000000e+000
          2.686567164169e+001 0.000000000000e+000 0.000000000000e+000
          2.835820895511e+001 0.000000000000e+000 0.000000000000e+000
          2.985074626854e+001 0.000000000000e+000 0.000000000000e+000
          3.134328358196e+001 0.000000000000e+000 0.000000000000e+000
          3.283582089539e+001 0.000000000000e+000 0.000000000000e+000
          3.432835820881e+001 0.000000000000e+000 0.000000000000e+000
          3.582089552224e+001 0.000000000000e+000 0.000000000000e+000
          3.731343283566e+001 0.000000000000e+000 0.000000000000e+000
          3.880597014909e+001 0.000000000000e+000 0.000000000000e+000
          4.029850746251e+001 0.000000000000e+000 0.000000000000e+000
          4.179104477594e+001 0.000000000000e+000 0.000000000000e+000
          4.328358208936e+001 0.000000000000e+000 0.000000000000e+000
          4.477611940279e+001 0.000000000000e+000 0.000000000000e+000
          4.626865671621e+001 0.000000000000e+000 0.000000000000e+000
          4.776119402964e+001 0.000000000000e+000 0.000000000000e+000
          4.925373134306e+001 0.000000000000e+000 0.000000000000e+000
          5.074626865649e+001 0.000000000000e+000 0.000000000000e+000
          5.223880596991e+001 0.000000000000e+000 0.000000000000e+000
          5.373134328334e+001 0.000000000000e+000 0.000000000000e+000
          5.522388059676e+001 0.000000000000e+000 0.000000000000e+000
          5.671641791019e+001 0.000000000000e+000 0.000000000000e+000
          5.820895522361e+001 0.000000000000e+000 0.000000000000e+000
          5.970149253704e+001 0.000000000000e+000 0.000000000000e+000
          6.119402985046e+001 0.000000000000e+000 0.000000000000e+000
          6.268656716389e+001 0.000000000000e+000 0.000000000000e+000
          6.417910447732e+001 0.000000000000e+000 0.000000000000e+000
          6.567164179075e+001 0.000000000000e+000 0.000000000000e+000
          6.716417910418e+001 0.000000000000e+000 0.000000000000e+000
          6.865671641761e+001 0.000000000000e+000 0.000000000000e+000
          7.014925373104e+001 0.000000000000e+000 0.000000000000e+000
          7.164179104447e+001 0.000000000000e+000 0.000000000000e+000
          7.313432835790e+001 0.000000000000e+000 0.000000000000e+000
          7.462686567133e+001 0.000000000000e+000 0.000000000000e+000
          7.611940298476e+001 0.000000000000e+000 0.000000000000e+000
          7.761194029819e+001 0.000000000000e+000 0.000000000000e+000
          7.910447761162e+001 0.000000000000e+000 0.000000000000e+000
          8.059701492505e+001 0.000000000000e+000 0.000000000000e+000
          8.208955223848e+001 0.000000000000e+000 0.000000000000e+000
          8.358208955191e+001 0.000000000000e+000 0.000000000000e+000
          8.507462686534e+001 0.000000000000e+000 0.000000000000e+000
          8.656716417877e+001 0.000000000000e+000 0.000000000000e+000
          8.805970149220e+001 0.000000000000e+000 0.000000000000e+000
          8.955223880563e+001 0.000000000000e+000 0.000000000000e+000
          9.104477611907e+001 0.000000000000e+000 0.000000000000e+000
          9.253731343250e+001 0.000000000000e+000 0.000000000000e+000
          9.402985074593e+001 0.000000000000e+000 0.000000000000e+000
          9.552238805936e+001 0.000000000000e+000 0.000000000000e+000
          9.701492537279e+001 0.000000000000e+000 0.000000000000e+000
          9.850746268622e+001 0.000000000000e+000 0.000000000000e+000
          9.999999999965e+001 0.000000000000e+000 0.000000000000e+000
          1.014925373131e+002 0.000000000000e+000 0.000000000000e+000
          1.029850746265e+002 0.000000000000e+000 0.000000000000e+000
          1.044776119399e+002 0.000000000000e+000 0.000000000000e+000
          1.059701492534e+002 0.000000000000e+000 0.000000000000e+000
          1.074626865668e+002 0.000000000000e+000 0.000000000000e+000
          1.089552238802e+002 0.000000000000e+000 0.000000000000e+000
          1.104477611937e+002 0.000000000000e+000 0.000000000000e+000
          1.119402985071e+002 0.000000000000e+000 0.000000000000e+000
          1.134328358205e+002 0.000000000000e+000 0.000000000000e+000
          1.149253731340e+002 0.000000000000e+000 0.000000000000e+000
          1.164179104474e+002 0.000000000000e+000 0.000000000000e+000
          1.179104477608e+002 0.000000000000e+000 0.000000000000e+000
          1.194029850742e+002 0.000000000000e+000 0.000000000000e+000
          1.208955223877e+002 0.000000000000e+000 0.000000000000e+000
          1.223880597011e+002 0.000000000000e+000 0.000000000000e+000
          1.238805970145e+002 0.000000000000e+000 0.000000000000e+000
          1.253731343280e+002 0.000000000000e+000 0.000000000000e+000
          1.268656716414e+002 0.000000000000e+000 0.000000000000e+000
          1.283582089548e+002 0.000000000000e+000 0.000000000000e+000
          1.298507462683e+002 0.000000000000e+000 0.000000000000e+000
          1.313432835817e+002 0.000000000000e+000 0.000000000000e+000
          1.328358208952e+002 0.000000000000e+000 0.000000000000e+000
          1.343283582086e+002 0.000000000000e+000 0.000000000000e+000
          1.358208955220e+002 0.000000000000e+000 0.000000000000e+000
          1.373134328355e+002 0.000000000000e+000 0.000000000000e+000
          1.388059701489e+002 0.000000000000e+000 0.000000000000e+000
          1.402985074624e+002 0.000000000000e+000 0.000000000000e+000
          1.417910447758e+002 0.000000000000e+000 0.000000000000e+000
          1.432835820892e+002 0.000000000000e+000 0.000000000000e+000
          1.447761194027e+002 0.000000000000e+000 0.000000000000e+000
          1.462686567161e+002 0.000000000000e+000 0.000000000000e+000
          1.477611940296e+002 0.000000000000e+000 0.000000000000e+000
          1.492537313430e+002 0.000000000000e+000 0.000000000000e+000
          1.507462686564e+002 0.000000000000e+000 0.000000000000e+000
          1.522388059699e+002 0.000000000000e+000 0.000000000000e+000
          1.537313432833e+002 0.000000000000e+000 0.000000000000e+000
          1.552238805968e+002 0.000000000000e+000 0.000000000000e+000
          1.567164179102e+002 0.000000000000e+000 0.000000000000e+000
          1.582089552237e+002 0.000000000000e+000 0.000000000000e+000
          1.597014925371e+002 0.000000000000e+000 0.000000000000e+000
          1.611940298505e+002 0.000000000000e+000 0.000000000000e+000
          1.626865671640e+002 0.000000000000e+000 0.000000000000e+000
          1.641791044774e+002 0.000000000000e+000 0.000000000000e+000
          1.656716417909e+002 0.000000000000e+000 0.000000000000e+000
          1.671641791043e+002 0.000000000000e+000 0.000000000000e+000
          1.686567164177e+002 0.000000000000e+000 0.000000000000e+000
          1.701492537312e+002 0.000000000000e+000 0.000000000000e+000
          1.716417910446e+002 0.000000000000e+000 0.000000000000e+000
          1.731343283581e+002 0.000000000000e+000 0.000000000000e+000
          1.746268656715e+002 0.000000000000e+000 0.000000000000e+000
          1.761194029849e+002 0.000000000000e+000 0.000000000000e+000
          1.776119402984e+002 0.000000000000e+000 0.000000000000e+000
          1.791044776118e+002 0.000000000000e+000 0.000000000000e+000
          1.805970149253e+002 0.000000000000e+000 0.000000000000e+000
          1.820895522387e+002 0.000000000000e+000 0.000000000000e+000
          1.835820895521e+002 0.000000000000e+000 0.000000000000e+000
          1.850746268656e+002 0.000000000000e+000 0.000000000000e+000
          1.865671641790e+002 0.000000000000e+000 0.000000000000e+000
          1.880597014925e+002 0.000000000000e+000 0.000000000000e+000
          1.895522388059e+002 0.000000000000e+000 0.000000000000e+000
          1.910447761194e+002 0.000000000000e+000 0.000000000000e+000
          1.925373134328e+002 0.000000000000e+000 0.000000000000e+000
          1.940298507462e+002 0.000000000000e+000 0.000000000000e+000
          1.955223880597e+002 0.000000000000e+000 0.000000000000e+000
          1.970149253731e+002 0.000000000000e+000 0.000000000000e+000
          1.985074626866e+002 0.000000000000e+000 0.000000000000e+000
          2.000000000000e+002 1.428571428570e+000 0.000000000000e+000
          2.000000000000e+002 2.857142857140e+000 0.000000000000e+000
[...]
      <PointData Scalars="MEAN_PRESSURE">
        <DataArray type="Float64" Name="MEAN_PRESSURE" format="ascii">
          2.000000000000e+002 1.981236332557e+002 1.981236323755e+002 2.000000000000e+002 1.996466502604e+002 1.988693045150e+002 1.982997943935e+002 1.978559560574e+002 1.975173011251e+002 1.972670946282e+002 1.970833421317e+002 1.969550339706e+002 1.968687027072e+002 1.968148254817e+002 1.967843045298e+002 1.967714286257e+002 1.967707645258e+002 1.967785152936e+002 1.967917574553e+002 1.968084506411e+002 1.968271040417e+002 1.968467690502e+002 1.968667501165e+002 1.968866760835e+002 1.969063486417e+002 1.969256674253e+002 1.969446190420e+002 1.969632176577e+002 1.969814930166e+002 1.969994939649e+002 1.970172639531e+002 1.970348469461e+002 1.970522704794e+002 1.970695633470e+002 1.970867450446e+002 1.971038296698e+002 1.971208294136e+002 1.971377487925e+002 1.971545934264e+002 1.971713660714e+002 1.971880651477e+002 1.972046891357e+002 1.972212402220e+002 1.972377144700e+002 1.972541109510e+002 1.972704266225e+002 1.972866606623e+002 1.973028056666e+002 1.973188658318e+002 1.973348329689e+002 1.973507056503e+002 1.973664823543e+002 1.973821623997e+002 1.973977352942e+002 1.974132064471e+002 1.974285708701e+002 1.974438271997e+002 1.974589687849e+002 1.974739948085e+002 1.974889090947e+002 1.975036972871e+002 1.975183636862e+002 1.975329051913e+002 1.975473217526e+002 1.975616073249e+002 1.975757605606e+002 1.975897795151e+002 1.976036603594e+002 1.976174032706e+002 1.976310026622e+002 1.976444609914e+002 1.976577700233e+002 1.976709323735e+002 1.976839431988e+002 1.976968002555e+002 1.977095037113e+002 1.977220479026e+002 1.977344355764e+002 1.977466602431e+002 1.977587219631e+002 1.977706155730e+002 1.977823443129e+002 1.977939015733e+002 1.978052888004e+002 1.978165012987e+002 1.978275379889e+002 1.978383982091e+002 1.978490789958e+002 1.978595786055e+002 1.978698956333e+002 1.978800282971e+002 1.978899752102e+002 1.978997347735e+002 1.979093039198e+002 1.979186801408e+002 1.979278661199e+002 1.979368556600e+002 1.979456496979e+002 1.979542470047e+002 1.979626467929e+002 1.979708455862e+002 1.979788409951e+002 1.979866360669e+002 1.979942245295e+002 1.980016076933e+002 1.980087846133e+002 1.980157547939e+002 1.980225149044e+002 1.980290627515e+002 1.980354018060e+002 1.980415257851e+002 1.980474362240e+002 1.980531329245e+002 1.980586161350e+002 1.980638812883e+002 1.980689269868e+002 1.980737574372e+002 1.980783662383e+002 1.980827552269e+002 1.980869242344e+002 1.980908739873e+002 1.980946015898e+002 1.980981046075e+002 1.981013842928e+002 1.981044397835e+002 1.981072688788e+002 1.981098757594e+002 1.981122598379e+002 1.981144146564e+002 1.981163482221e+002 1.981180585033e+002 1.981195305708e+002 1.981207794477e+002 1.981218023334e+002 1.981226107763e+002 1.981231570600e+002 1.981235086864e+002 1.981236210867e+002 1.981236097552e+002 1.981236343643e+002 1.981236294263e+002 1.981236270062e+002 1.981236225656e+002 1.981236196516e+002 1.981236216719e+002 1.981236219050e+002 1.981236163474e+002 1.981236317056e+002 1.981236083586e+002 1.981236201151e+002 1.981235078934e+002 1.981231564299e+002 1.981226102310e+002 1.981218017955e+002 1.981207790323e+002 1.981195308756e+002 1.981180595051e+002 1.981163493656e+002 1.981144157260e+002 1.981122608319e+002 1.981098759984e+002 1.981072692959e+002 1.981044396491e+002 1.981013835678e+002 1.980981040700e+002 1.980946005153e+002 1.980908726490e+002 1.980869270954e+002 1.980827575719e+002 1.980783668327e+002 1.980737572914e+002 1.980689276833e+002 1.980638794327e+002 1.980586158185e+002 1.980531344983e+002 1.980474383465e+002 1.980415257699e+002 1.980354011455e+002 1.980290615136e+002 1.980225141757e+002 1.980157538115e+002 1.980087849852e+002 1.980016083977e+002 1.979942231113e+002 1.979866351480e+002 1.979788400927e+002 1.979708453360e+002 1.979626462362e+002 1.979542475380e+002 1.979456502905e+002 1.979368541561e+002 1.979278652623e+002 1.979186795557e+002 1.979093040138e+002 1.978997346459e+002 1.978899740741e+002 1.978800288085e+002 1.978698959942e+002 1.978595787810e+002 1.978490790019e+002 1.978383987487e+002 1.978275398504e+002 1.978165028108e+002 1.978052887017e+002 1.977939033373e+002 1.977823444162e+002 1.977706159545e+002 1.977587203861e+002 1.977466608530e+002 1.977344354210e+002 1.977220496530e+002 1.977095044125e+002 1.976968007951e+002 1.976839421992e+002 1.976709313341e+002 1.976577706022e+002 1.976444604055e+002 1.976310037856e+002 1.976174026543e+002 1.976036602957e+002 1.975897783891e+002 1.975757598824e+002 1.975616074485e+002 1.975473219166e+002 1.975329064402e+002 1.975183631447e+002 1.975036953571e+002 1.974889049672e+002 1.974739949169e+002 1.974589684078e+002 1.974438263683e+002 1.974285718455e+002 1.974132070326e+002 1.973977354081e+002 1.973821589250e+002 1.973664809798e+002 1.973507040404e+002 1.973348286372e+002 1.973188621042e+002 1.973028039261e+002 1.972866561097e+002 1.972704234389e+002 1.972541051388e+002 1.972377061425e+002 1.972212294578e+002 1.972046752070e+002 1.971880457768e+002 1.971713426834e+002 1.971545654220e+002 1.971377128002e+002 1.971207839422e+002 1.971037723097e+002 1.970866715324e+002 1.970694705659e+002 1.970521540868e+002 1.970346991420e+002 1.970170772170e+002 1.969992567018e+002 1.969811906341e+002 1.969628349210e+002 1.969441416306e+002 1.969250705504e+002 1.969055935702e+002 1.968857234862e+002 1.968655486357e+002 1.968452690195e+002 1.968252532435e+002 1.968061372401e+002 1.967888392245e+002 1.967748902851e+002 1.967661991963e+002 1.967658342691e+002 1.967775873645e+002 1.968061674817e+002 1.968590244016e+002 1.969440335152e+002 1.970714754374e+002 1.972515175889e+002 1.975034415003e+002 1.978435065401e+002 1.982862467078e+002 1.988607784976e+002 1.996341085420e+002 2.000000000000e+002 2.000000000000e+002 2.000000000000e+002 2.000000000000e+002 2.000000000000e+002 2.000000000000e+002 2.000000000000e+002 2.000000000000e+002 2.000000000000e+002 2.000000000000e+002 2.000000000000e+002 2.000000000000e+002 2.000000000000e+002 1.981185071659e+002 1.971411148790e+002 1.981030365146e+002 1.980761766013e+002 1.980381033477e+002 1.979899772196e+002 1.979318183968e+002 1.968560615679e+002 1.978647561237e+002 1.969915084275e+002 1.971133766006e+002 1.972315322182e+002 1.974041638949e+002 1.975110419947e+002 1.976105455698e+002 1.977031678570e+002 1.977881398742e+002 1.967674514481e+002 1.973188647120e+002 1.978275356537e+002 1.978270323761e+002 1.977466605258e+002 1.976577702363e+002 1.975616077589e+002 1.974589692419e+002 1.980914549214e+002 1.980594283270e+002 1.980165545727e+002 1.974589670984e+002 1.975590548333e+002 1.976588379021e+002 1.977444785192e+002 1.979636163323e+002 1.978997311096e+002 1.969245689979e+002 1.970501952449e+002 1.971732446733e+002 1.979001828910e+002 1.979627265029e+002 1.980158200149e+002 1.980586105078e+002 1.980908683862e+002 1.971711761947e+002 1.970520015900e+002 1.969251978791e+002 1.981120216447e+002 1.981118785228e+002 1.972843411842e+002 1.973549350092e+002 1.968070993252e+002 1.967915990127e+002 1.981218360088e+002 1.978544476186e+002 1.981218643446e+002 1.978608675406e+002 1.968473886121e+002 1.968056833749e+002 1.972667142213e+002 1.973687248065e+002 1.981029428016e+002 1.977881413315e+002 1.980760855060e+002 1.977031716812e+002 1.976105492946e+002 1.975110448392e+002 1.974087683112e+002 1.978646565015e+002 1.980385945443e+002 1.979911272730e+002 1.979331827657e+002 1.969901418383e+002 1.971108164740e+002 1.978648560335e+002 1.979323810461e+002 1.979904520988e+002 1.980384866294e+002 1.975110192623e+002 1.976105245607e+002 1.977031473868e+002 1.980760855455e+002 1.977883499187e+002 1.981029390699e+002 1.972294796104e+002 1.971122945680e+002 1.969902909309e+002 1.968555875492e+002 1.981178628826e+002 1.981179693477e+002 1.970666818785e+002 1.968669932707e+002 1.974163486684e+002 1.972168412963e+002 1.981226882722e+002 1.983525446530e+002 1.967688198083e+002 1.971437992646e+002 1.967652057162e+002 1.973096697448e+002 1.972759678881e+002 1.973616721706e+002 1.968333504624e+002 1.967944092703e+002 1.973192256021e+002 1.981137591342e+002 1.980218604935e+002 1.980533299993e+002 1.979700510951e+002 1.980870643418e+002 1.979083673181e+002 1.977566976181e+002 1.975733842558e+002 1.974714719161e+002 1.976696466445e+002 1.969436711057e+002 1.971562161604e+002 1.970364787069e+002 1.978175757010e+002 1.973188632371e+002 1.981230511818e+002 1.987522393662e+002 1.981230511648e+002 1.987327932257e+002 1.977630148210e+002 1.976756254613e+002 1.975808155378e+002 1.974793700013e+002 1.978864113762e+002 1.978120348511e+002 1.978422559384e+002 1.979511708884e+002 1.971940364287e+002 1.980062204216e+002 1.970756748687e+002 1.980511006603e+002 1.969509294193e+002 1.980854425155e+002 1.980852836929e+002 1.980961361034e+002 1.980508806451e+002 1.980658178793e+002 1.980055541330e+002 1.980246348710e+002 1.979503711952e+002 1.979734317209e+002 1.969538383033e+002 1.979122731406e+002 1.978863834362e+002 1.970773648415e+002 1.970291896680e+002 1.974794466446e+002 1.975813866604e+002 1.976766699450e+002 1.975426600304e+002 1.976400543777e+002 1.977624821815e+002 1.977304338368e+002 1.971533808319e+002 1.978422843491e+002 1.978141509302e+002 1.980958854016e+002 1.968985424242e+002 1.980649356664e+002 1.970310074086e+002 1.980239082683e+002 1.971510207495e+002 1.979725432774e+002 1.974358826991e+002 1.975406997801e+002 1.976382820554e+002 1.977285299496e+002 1.979112920943e+002 1.967666476352e+002 1.981088073724e+002 1.981086914165e+002 1.973717227427e+002 1.972632346762e+002 1.968148855243e+002 1.978413317081e+002 1.976404491097e+002 1.977310056269e+002 1.975433270839e+002 1.974361932168e+002 1.969001471144e+002 1.970742414360e+002 1.980956645274e+002 1.971930315131e+002 1.980652794583e+002 1.980068353841e+002 1.978872681243e+002 1.979519083151e+002 1.969058533267e+002 1.981144934658e+002 1.981144930558e+002 1.973439150641e+002 1.968585960704e+002 1.981090531668e+002 1.978500347145e+002 1.978792748265e+002 1.979449841251e+002 1.972049785961e+002 1.980010504430e+002 1.970880056428e+002 1.975318248614e+002 1.976299919687e+002 1.977211179547e+002 1.980981690542e+002 1.968856592815e+002 1.980693042748e+002 1.967847236391e+002 1.974298694249e+002 1.981207269233e+002 1.981205872226e+002 1.981069348161e+002 1.974457670546e+002 1.971859932166e+002 1.973839987516e+002 1.972516827371e+002 1.974965687256e+002 1.968288773906e+002 1.969324373134e+002 1.967968537997e+002 1.968295602866e+002 1.977700562717e+002 1.976835338069e+002 1.975893366389e+002 1.974884350454e+002 1.980477383712e+002 1.969620071607e+002 1.980829867904e+002 1.978048234607e+002 1.979184282436e+002 1.980472045628e+002 1.979791791618e+002 1.980825883356e+002 1.980293373557e+002 1.977714646437e+002 1.976834977224e+002 1.975903602529e+002 1.974895245238e+002 1.969638895984e+002 1.971382191083e+002 1.970164733866e+002 1.970163915271e+002 1.980293330870e+002 1.971370159316e+002 1.979791691303e+002 1.979190657520e+002 1.978048151558e+002 1.981231091414e+002 1.981231427922e+002 1.988242897071e+002 1.987474980890e+002 1.981209825531e+002 1.975571609667e+002 1.981163323199e+002 1.981166482823e+002 1.973038418469e+002 1.981198582079e+002 1.970194143782e+002 1.975928929843e+002 1.972475003257e+002 1.973887649318e+002 1.968404642898e+002 1.969239736672e+002 1.972363648331e+002 1.967774126198e+002 1.967764256322e+002 1.973996491032e+002 1.967748769144e+002 1.972774389213e+002 1.973421842181e+002 1.967797972098e+002 1.970827415428e+002 1.978829077732e+002 1.979476710292e+002 1.980032984631e+002 1.980683703086e+002 1.980977521616e+002 1.978460386037e+002 1.974318017386e+002 1.975358676362e+002 1.976337697862e+002 1.977245976824e+002 1.972946923418e+002 1.967779584635e+002 1.973454850922e+002 1.972902928020e+002 1.981076205920e+002 1.981194329611e+002 1.968913239873e+002 1.971971663826e+002 1.973600465042e+002 1.977463903586e+002 1.981215870470e+002 1.967763191265e+002 1.977817922357e+002 1.976961949761e+002 1.976030072091e+002 1.975029997407e+002 1.978696441141e+002 1.978598267802e+002 1.977946175421e+002 1.979372667950e+002 1.979945694286e+002 1.972204529004e+002 1.980418017724e+002 1.971029707946e+002 1.980785707330e+002 1.969803392624e+002 1.981013053473e+002 1.980784135401e+002 1.980418989101e+002 1.979947999952e+002 1.979375401597e+002 1.969803334857e+002 1.971024948369e+002 1.975035374185e+002 1.976028981471e+002 1.976960942635e+002 1.981012302363e+002 1.968665433585e+002 1.974146737805e+002 1.981031712436e+002 1.981171973592e+002 1.981171988622e+002 1.968763993919e+002 1.968243152217e+002 1.970039925328e+002 1.973362924413e+002 1.980929662722e+002 1.980615613173e+002 1.980119099008e+002 1.979580080438e+002 1.978934773173e+002 1.969145782126e+002 1.970618180983e+002 1.971806276389e+002 1.977402865753e+002 1.975541522972e+002 1.974511908693e+002 1.976492271312e+002 1.978345437983e+002 1.981107183340e+002 1.981221107043e+002 1.981221113948e+002 1.980752965299e+002 1.979916646798e+002 1.979338197231e+002 1.971096014231e+002 1.975135364706e+002 1.976128833967e+002 1.977053282735e+002 1.980010102828e+002 1.973017899575e+002 1.978666807415e+002 1.978628854661e+002 1.974084133615e+002 1.981233704560e+002 1.992108856836e+002 1.972089154794e+002 1.974250709312e+002 1.978993714079e+002 1.979623339362e+002 1.980154950691e+002 1.980908698241e+002 1.980586243067e+002 1.971719639632e+002 1.970528007463e+002 1.969250827169e+002 1.976577695047e+002 1.977466600111e+002 1.974589671259e+002 1.975616064793e+002 1.980908674979e+002 1.980586124697e+002 1.975616036416e+002 1.976579969408e+002 1.980157487159e+002 1.977467690608e+002 1.979626414831e+002 1.978998208706e+002 1.970522632114e+002 1.978279429368e+002 1.978275351792e+002 1.967710606123e+002 1.972519852739e+002 1.967712718068e+002 1.974376063492e+002 1.973228868087e+002 1.981150686757e+002 1.981148731735e+002 1.973661018339e+002 1.973750085168e+002 1.973302532984e+002 1.978742923402e+002 1.977773011951e+002 1.977988388769e+002 1.978550677658e+002 1.977149375822e+002 1.976232907650e+002 1.975246559443e+002 1.979239231345e+002 1.970071825833e+002 1.971281415364e+002 1.980720110227e+002 1.980326889639e+002 1.979832941991e+002 1.980716984179e+002 1.970069820913e+002 1.980326907971e+002 1.971281025220e+002 1.975246569954e+002 1.976232918807e+002 1.977131923914e+002 1.979832954434e+002 1.979239237510e+002 1.981100825703e+002 1.969020390701e+002 1.981222474153e+002 1.980722954394e+002 1.977885640637e+002 1.977877184341e+002 1.969899315053e+002 1.969896760305e+002 1.980387089003e+002 1.980386575372e+002 1.981203367008e+002 1.967707269626e+002 1.972535186839e+002 1.968679696014e+002 1.967647963127e+002 1.981233918307e+002 1.992854931610e+002 1.981234053869e+002 1.992359064108e+002 1.968136309242e+002 1.981055837018e+002 1.981056379416e+002 1.979321289106e+002 1.979902391665e+002 1.971127834320e+002 1.977026131961e+002 1.975103999956e+002 1.976099440487e+002 1.980761318437e+002 1.968023833446e+002 1.968061337462e+002 1.969450254688e+002 1.973918023277e+002 1.972441240058e+002 1.969579646836e+002 1.968376796511e+002 1.969299591175e+002 1.972739334318e+002 1.968192860101e+002 1.981117246387e+002 1.981117249686e+002 1.972618600727e+002 1.973801173998e+002 1.981086923991e+002 1.972170827870e+002 1.973829361131e+002 1.973646716374e+002 1.980654735389e+002 1.968987853632e+002 1.980958516291e+002 1.975319704402e+002 1.976298822295e+002 1.977212430631e+002 1.978506694627e+002 1.970763069977e+002 1.980059615016e+002 1.971944832829e+002 1.979508604826e+002 1.978785132286e+002 1.981028576415e+002 1.967768331905e+002 1.973441521712e+002 1.973060235047e+002 1.972290033961e+002 1.968049247874e+002 1.981234265920e+002 1.993378976591e+002 1.981234274176e+002 1.993921327497e+002 1.973929760457e+002 1.968566672207e+002 1.973164003435e+002 1.972744405113e+002 1.981204513206e+002 1.971653879124e+002 1.974633338142e+002 1.968042649345e+002 1.973939253885e+002 1.967741469942e+002 1.979119763971e+002 1.979731272287e+002 1.980243871944e+002 1.971497915453e+002 1.970297364340e+002 1.980298142221e+002 1.980823032140e+002 1.979797656344e+002 1.980468362588e+002 1.979197715118e+002 1.970151451151e+002 1.971357533520e+002 1.969651550036e+002 1.974904697383e+002 1.976854620670e+002 1.975912189581e+002 1.977720053656e+002 1.980851802211e+002 1.980507435976e+002 1.969521534357e+002 1.978133293033e+002 1.974782341287e+002 1.975797466326e+002 1.976746326745e+002 1.977621056237e+002 1.978041208492e+002 1.978275368439e+002 1.977466538949e+002 1.975616025860e+002 1.976577689277e+002 1.974589651033e+002 1.980908715751e+002 1.980586132845e+002 1.980158485881e+002 1.978997327769e+002 1.979627617333e+002 1.969255509015e+002 1.970519711617e+002 1.971713357031e+002 1.972425645756e+002 1.968319608194e+002 1.981202478090e+002 1.973857955070e+002 1.978027804932e+002 1.977732248306e+002 1.976865959381e+002 1.975926423950e+002 1.974919549600e+002 1.980459265106e+002 1.980816614881e+002 1.969677448031e+002 1.980304743445e+002 1.979804186950e+002 1.979204544951e+002 1.970132387762e+002 1.971344831422e+002 1.973134454444e+002 1.981120233792e+002 1.973005512424e+002 1.981136930742e+002 1.978260783122e+002 1.978284808632e+002 1.977492730002e+002 1.976605776839e+002 1.975646701755e+002 1.974622195596e+002 1.980903591396e+002 1.980578969674e+002 1.980144814676e+002 1.979611101778e+002 1.979010118539e+002 1.970554513949e+002 1.978988990214e+002 1.975634932953e+002 1.976560092083e+002 1.977482699358e+002 1.979621017754e+002 1.980153024466e+002 1.971724288677e+002 1.980586790570e+002 1.970532905494e+002 1.980909171939e+002 1.969248736503e+002 1.967680200444e+002 1.980540836484e+002 1.969410636442e+002 1.980876123438e+002 1.975726574407e+002 1.977560797901e+002 1.976687465290e+002 1.974706997143e+002 1.970388940557e+002 1.980209188771e+002 1.971585571991e+002 1.979689081778e+002 1.979068536636e+002 1.978193501470e+002 1.971781685786e+002 1.981234098443e+002 1.992932976127e+002 1.981160557482e+002 1.981192057239e+002 1.981192042238e+002 1.972969413607e+002 1.973405954467e+002 1.967984030952e+002 1.969282771472e+002 1.981070786383e+002 1.972052833571e+002 1.981117116137e+002 1.981116464728e+002 1.968506168995e+002 1.978781475146e+002 1.979441552810e+002 1.972069522667e+002 1.980003562061e+002 1.970896450999e+002 1.977221365797e+002 1.976300056023e+002 1.975330097830e+002 1.978504973561e+002 1.980986540756e+002 1.968809422337e+002 1.980697719912e+002 1.972283975855e+002 1.974070674665e+002 1.972861750907e+002 1.968314995052e+002 1.970092894113e+002 1.981227918312e+002 1.984775772716e+002 1.981227915878e+002 1.984365417565e+002 1.974643526277e+002 1.971658569317e+002 1.974248852314e+002 1.967947630914e+002 1.980999488319e+002 1.980610773205e+002 1.972652384025e+002 1.973573123465e+002 1.972835226539e+002 1.967935275710e+002 1.968107672844e+002 1.967676323075e+002 1.971904795700e+002 1.968109369280e+002 1.967762643340e+002 1.972935183047e+002 1.970694788757e+002 1.968842491995e+002 1.973280023450e+002 1.972559551678e+002 1.973606491322e+002 1.972720999235e+002 1.981179623307e+002 1.975290621071e+002 1.968938469710e+002 1.978358877286e+002 1.978544808640e+002 1.980998546734e+002 1.980715743041e+002 1.980941137331e+002 1.980629508963e+002 1.980005354847e+002 1.979443676392e+002 1.970892800762e+002 1.978922694442e+002 1.978748629719e+002 1.974446358921e+002 1.974228201155e+002 1.975482603210e+002 1.975256953097e+002 1.976242629670e+002 1.976453536389e+002 1.977351944566e+002 1.977157972903e+002 1.978277508995e+002 1.981217887311e+002 1.981217728068e+002 1.981227221217e+002 1.981227225536e+002 1.981764679341e+002 1.981224661508e+002 1.977646162405e+002 1.976773761281e+002 1.975827004186e+002 1.974813737264e+002 1.978109582235e+002 1.978436967652e+002 1.978850865500e+002 1.979500257064e+002 1.971962684313e+002 1.980052660225e+002 1.970779802655e+002 1.980503459478e+002 1.969534235376e+002 1.980848927355e+002 1.980848846528e+002 1.980503342430e+002 1.980963796116e+002 1.980052215416e+002 1.979499726161e+0