<?xml version="1.0"?>
<VTKFile type="UnstructuredGrid" version="0.1" byte_order="LittleEndian">
  <UnstructuredGrid>
    <Piece NumberOfPoints="2604" NumberOfCells="4910">
      <Points>
        <DataArray type="Float64" NumberOfComponents="3" format="ascii">
          0.000000000000e+000 0.000000000000e+000 0.000000000000e+000
          2.000000000000e+002 0.000000000000e+000 0.000000000000e+000
          2.000000000000e+002 2.000000000000e+001 0.000000000000e+000
          0.000000000000e+000 2.000000000000e+001 0.000000000000e+000
          1.492537313427e+000 0.000000000000e+000 0.000000000000e+000
          2.985074626854e+000 0.000000000000e+000 0.000000000000e+000
          4.477611940281e+000 0.000000000000e+000 0.000000000000e+000
          5.970149253708e+000 0.000000000000e+000 0.000000000000e+000
          7.462686567135e+000 0.000000000000e+000 0.000000000000e+000
          8.955223880561e+000 0.000000000000e+000 0.000000000000e+000
          1.044776119399e+001 0.000000000000e+000 0.000000000000e+000
          1.194029850741e+001 0.000000000000e+000 0.000000000000e+000
          1.343283582084e+001 0.000000000000e+000 0.000000000000e+000
          1.492537313427e+001 0.000000000000e+000 0.000000000000e+000
          1.641791044770e+001 0.000000000000e+000 0.000000000000e+000
          1.791044776112e+001 0.000000000000e+000 0.000000000000e+000
          1.940298507455e+001 0.000000000000e+000 0.000000000000e+000
          2.089552238798e+001 0.000000000000e+000 0.000000000000e+000
          2.238805970141e+001 0.000000000000e+000 0.000000000000e+000
          2.388059701484e+001 0.000000000000e+000 0.000000000000e+000
          2.537313432826e+001 0.000000000000e+000 0.000000000000e+000
          2.686567164169e+001 0.000000000000e+000 0.000000000000e+000
          2.835820895511e+001 0.000000000000e+000 0.000000000000e+000
          2.985074626854e+001 0.000000000000e+000 0.000000000000e+000
          3.134328358196e+001 0.000000000000e+000 0.000000000000e+000
          3.283582089539e+001 0.000000000000e+000 0.000000000000e+000
          3.432835820881e+001 0.000000000000e+000 0.000000000000e+000
          3.582089552224e+001 0.000000000000e+000 0.000000000000e+000
          3.731343283566e+001 0.000000000000e+000 0.000000000000e+000
          3.880597014909e+001 0.000000000000e+000 0.000000000000e+000
          4.029850746251e+001 0.000000000000e+000 0.000000000000e+000
          4.179104477594e+001 0.000000000000e+000 0.000000000000e+000
          4.328358208936e+001 0.000000000000e+000 0.000000000000e+000
          4.477611940279e+001 0.000000000000e+000 0.000000000000e+000
          4.626865671621e+001 0.000000000000e+000 0.000000000000e+000
          4.776119402964e+001 0.000000000000e+000 0.000000000000e+000
          4.925373134306e+001 0.000000000000e+000 0.000000000000e+000
          5.074626865649e+001 0.000000000000e+000 0.000000000000e+000
          5.223880596991e+001 0.000000000000e+000 0.000000000000e+000
          5.373134328334e+001 0.000000000000e+000 0.000000000000e+000
          5.522388059676e+001 0.000000000000e+000 0.000000000000e+000
          5.671641791019e+001 0.000000000000e+000 0.000000000000e+000
          5.820895522361e+001 0.000000000000e+000 0.000000000000e+000
          5.970149253704e+001 0.000000000000e+000 0.000000000000e+000
          6.119402985046e+001 0.000000000000e+000 0.000000000000e+000
          6.268656716389e+001 0.000000000000e+000 0.000000000000e+000
          6.417910447732e+001 0.000000000000e+000 0.000000000000e+000
          6.567164179075e+001 0.000000000000e+000 0.000000000000e+000
          6.716417910418e+001 0.000000000000e+000 0.000000000000e+000
          6.865671641761e+001 0.000000000000e+000 0.000000000000e+000
          7.014925373104e+001 0.000000000000e+000 0.000000000000e+000
          7.164179104447e+001 0.000000000000e+000 0.000000000000e+000
          7.313432835790e+001 0.000000000000e+000 0.000000000000e+000
          7.462686567133e+001 0.000000000000e+000 0.000000000000e+000
          7.611940298476e+001 0.000000000000e+000 0.000000000000e+000
          7.761194029819e+001 0.000000000000e+000 0.000000000000e+000
          7.910447761162e+001 0.000000000000e+000 0.000000000000e+000
          8.059701492505e+001 0.000000000000e+000 0.000000000000e+000
          8.208955223848e+001 0.000000000000e+000 0.000000000000e+000
          8.358208955191e+001 0.000000000000e+000 0.000000000000e+000
          8.507462686534e+001 0.000000000000e+000 0.000000000000e+000
          8.656716417877e+001 0.000000000000e+000 0.000000000000e+000
          8.805970149220e+001 0.000000000000e+000 0.000000000000e+000
          8.955223880563e+001 0.000000000000e+000 0.000000000000e+000
          9.104477611907e+001 0.000000000000e+000 0.000000000000e+000
          9.253731343250e+001 0.000000000000e+000 0.000000000000e+000
          9.402985074593e+001 0.000000000000e+000 0.000000000000e+000
          9.552238805936e+001 0.000000000000e+000 0.000000000000e+000
          9.701492537279e+001 0.000000000000e+000 0.000000000000e+000
          9.850746268622e+001 0.000000000000e+000 0.000000000000e+000
          9.999999999965e+001 0.000000000000e+000 0.000000000000e+000
          1.014925373131e+002 0.000000000000e+000 0.000000000000e+000
          1.029850746265e+002 0.000000000000e+000 0.000000000000e+000
          1.044776119399e+002 0.000000000000e+000 0.000000000000e+000
          1.059701492534e+002 0.000000000000e+000 0.000000000000e+000
          1.074626865668e+002 0.000000000000e+000 0.000000000000e+000
          1.089552238802e+002 0.000000000000e+000 0.000000000000e+000
          1.104477611937e+002 0.000000000000e+000 0.000000000000e+000
          1.119402985071e+002 0.000000000000e+000 0.000000000000e+000
          1.134328358205e+002 0.000000000000e+000 0.000000000000e+000
          1.149253731340e+002 0.000000000000e+000 0.000000000000e+000
          1.164179104474e+002 0.000000000000e+000 0.000000000000e+000
          1.179104477608e+002 0.000000000000e+000 0.000000000000e+000
          1.194029850742e+002 0.000000000000e+000 0.000000000000e+000
          1.208955223877e+002 0.000000000000e+000 0.000000000000e+000
          1.223880597011e+002 0.000000000000e+000 0.000000000000e+000
          1.238805970145e+002 0.000000000000e+000 0.000000000000e+000
          1.253731343280e+002 0.000000000000e+000 0.000000000000e+000
          1.268656716414e+002 0.000000000000e+000 0.000000000000e+000
          1.283582089548e+002 0.000000000000e+000 0.000000000000e+000
          1.298507462683e+002 0.000000000000e+000 0.000000000000e+000
          1.313432835817e+002 0.000000000000e+000 0.000000000000e+000
          1.328358208952e+002 0.000000000000e+000 0.000000000000e+000
          1.343283582086e+002 0.000000000000e+000 0.000000000000e+000
          1.358208955220e+002 0.000000000000e+000 0.000000000000e+000
          1.373134328355e+002 0.000000000000e+000 0.000000000000e+000
          1.388059701489e+002 0.000000000000e+000 0.000000000000e+000
          1.402985074624e+002 0.000000000000e+000 0.000000000000e+000
          1.417910447758e+002 0.000000000000e+000 0.000000000000e+000
          1.432835820892e+002 0.000000000000e+000 0.000000000000e+000
          1.447761194027e+002 0.000000000000e+000 0.000000000000e+000
          1.462686567161e+002 0.000000000000e+000 0.000000000000e+000
          1.477611940296e+002 0.000000000000e+000 0.000000000000e+000
          1.492537313430e+002 0.000000000000e+000 0.000000000000e+000
          1.507462686564e+002 0.000000000000e+000 0.000000000000e+000
          1.522388059699e+002 0.000000000000e+000 0.000000000000e+000
          1.537313432833e+002 0.000000000000e+000 0.000000000000e+000
          1.552238805968e+002 0.000000000000e+000 0.000000000000e+000
          1.567164179102e+002 0.000000000000e+000 0.000000000000e+000
          1.582089552237e+002 0.000000000000e+000 0.000000000000e+000
          1.597014925371e+002 0.000000000000e+000 0.000000000000e+000
          1.611940298505e+002 0.000000000000e+000 0.000000000000e+000
          1.626865671640e+002 0.000000000000e+000 0.000000000000e+000
          1.641791044774e+002 0.000000000000e+000 0.000000000000e+000
          1.656716417909e+002 0.000000000000e+000 0.000000000000e+000
          1.671641791043e+002 0.000000000000e+000 0.000000000000e+000
          1.686567164177e+002 0.000000000000e+000 0.000000000000e+000
          1.701492537312e+002 0.000000000000e+000 0.000000000000e+000
          1.716417910446e+002 0.000000000000e+000 0.000000000000e+000
          1.731343283581e+002 0.000000000000e+000 0.000000000000e+000
          1.746268656715e+002 0.000000000000e+000 0.000000000000e+000
          1.761194029849e+002 0.000000000000e+000 0.000000000000e+000
          1.776119402984e+002 0.000000000000e+000 0.000000000000e+000
          1.791044776118e+002 0.000000000000e+000 0.000000000000e+000
          1.805970149253e+002 0.000000000000e+000 0.000000000000e+000
          1.820895522387e+002 0.000000000000e+000 0.000000000000e+000
          1.835820895521e+002 0.000000000000e+000 0.000000000000e+000
          1.850746268656e+002 0.000000000000e+000 0.000000000000e+000
          1.865671641790e+002 0.000000000000e+000 0.000000000000e+000
          1.880597014925e+002 0.000000000000e+000 0.000000000000e+000
          1.895522388059e+002 0.000000000000e+000 0.000000000000e+000
          1.910447761194e+002 0.000000000000e+000 0.000000000000e+000
          1.925373134328e+002 0.000000000000e+000 0.000000000000e+000
          1.940298507462e+002 0.000000000000e+000 0.000000000000e+000
          1.955223880597e+002 0.000000000000e+000 0.000000000000e+000
          1.970149253731e+002 0.000000000000e+000 0.000000000000e+000
          1.985074626866e+002 0.000000000000e+000 0.000000000000e+000
          2.000000000000e+002 1.428571428570e+000 0.000000000000e+000
          2.000000000000e+002 2.857142857140e+000 0.000000000000e+000
[...]
      <PointData Scalars="MEAN_PRESSURE">
        <DataArray type="Float64" Name="MEAN_PRESSURE" format="ascii">
          2.000000000000e+002 1.984528224617e+002 1.984528213661e+002 2.000000000000e+002 1.996054516766e+002 1.987607403558e+002 1.981554763336e+002 1.976975571676e+002 1.973609748600e+002 1.971238227418e+002 1.969591602596e+002 1.968528247100e+002 1.967887785475e+002 1.967558126342e+002 1.967439755765e+002 1.967470458083e+002 1.967596299006e+002 1.967781317862e+002 1.968000146918e+002 1.968236374520e+002 1.968479511847e+002 1.968723243892e+002 1.968964294247e+002 1.969201347771e+002 1.969434158899e+002 1.969662899070e+002 1.969888176636e+002 1.970110556554e+002 1.970330534304e+002 1.970548617456e+002 1.970765175600e+002 1.970980515752e+002 1.971194798401e+002 1.971408173604e+002 1.971620719336e+002 1.971832473289e+002 1.972043470147e+002 1.972253688012e+002 1.972463128550e+002 1.972671778683e+002 1.972879587147e+002 1.973086510598e+002 1.973292557405e+002 1.973497668339e+002 1.973701824171e+002 1.973904982210e+002 1.974107128955e+002 1.974308170331e+002 1.974508157148e+002 1.974706986757e+002 1.974904640873e+002 1.975101100244e+002 1.975296356192e+002 1.975490277957e+002 1.975682932796e+002 1.975874258533e+002 1.976064238130e+002 1.976252788716e+002 1.976439900063e+002 1.976625619759e+002 1.976809768962e+002 1.976992401190e+002 1.977173477787e+002 1.977352998096e+002 1.977530886785e+002 1.977707127035e+002 1.977881694591e+002 1.978054541727e+002 1.978225670624e+002 1.978395011665e+002 1.978562595440e+002 1.978728319343e+002 1.978892215941e+002 1.979054224889e+002 1.979214318220e+002 1.979372498020e+002 1.979528693724e+002 1.979682939556e+002 1.979835154667e+002 1.979985339817e+002 1.980133430686e+002 1.980279467651e+002 1.980423368385e+002 1.980565150922e+002 1.980704756787e+002 1.980842172555e+002 1.980977390008e+002 1.981110372258e+002 1.981241097614e+002 1.981369548612e+002 1.981495703088e+002 1.981619543806e+002 1.981741050891e+002 1.981860186178e+002 1.981976918472e+002 1.982091281242e+002 1.982203197353e+002 1.982312678522e+002 1.982419709496e+002 1.982524280522e+002 1.982626348360e+002 1.982725883309e+002 1.982822923377e+002 1.982917390512e+002 1.983009301095e+002 1.983098643415e+002 1.983185411363e+002 1.983269563523e+002 1.983351072646e+002 1.983429982012e+002 1.983506213448e+002 1.983579786132e+002 1.983650697654e+002 1.983718951166e+002 1.983784489861e+002 1.983847296399e+002 1.983907423207e+002 1.983964790647e+002 1.984019421640e+002 1.984071314136e+002 1.984120477230e+002 1.984166874920e+002 1.984210476947e+002 1.984251298946e+002 1.984289330226e+002 1.984324543431e+002 1.984356990636e+002 1.984386664564e+002 1.984413484862e+002 1.984437551225e+002 1.984458838387e+002 1.984477160554e+002 1.984492704734e+002 1.984505436086e+002 1.984515498359e+002 1.984522297663e+002 1.984526674170e+002 1.984528073154e+002 1.984527932118e+002 1.984528238414e+002 1.984528176954e+002 1.984528146832e+002 1.984528091562e+002 1.984528055293e+002 1.984528080439e+002 1.984528083340e+002 1.984528014167e+002 1.984528205323e+002 1.984527914735e+002 1.984528061062e+002 1.984526664300e+002 1.984522289822e+002 1.984515491572e+002 1.984505429391e+002 1.984492699564e+002 1.984477164348e+002 1.984458850857e+002 1.984437565458e+002 1.984413498175e+002 1.984386676937e+002 1.984356993612e+002 1.984324548623e+002 1.984289328553e+002 1.984251289921e+002 1.984210470257e+002 1.984166861544e+002 1.984120460570e+002 1.984071349752e+002 1.984019450832e+002 1.983964798047e+002 1.983907421393e+002 1.983847305071e+002 1.983784466761e+002 1.983718947226e+002 1.983650717249e+002 1.983579812558e+002 1.983506213259e+002 1.983429973788e+002 1.983351057234e+002 1.983269554451e+002 1.983185399131e+002 1.983098648047e+002 1.983009309867e+002 1.982917372853e+002 1.982822911934e+002 1.982725872072e+002 1.982626345244e+002 1.982524273588e+002 1.982419716137e+002 1.982312685902e+002 1.982203178621e+002 1.982091270561e+002 1.981976911184e+002 1.981860187349e+002 1.981741049300e+002 1.981619529656e+002 1.981495709457e+002 1.981369553108e+002 1.981241099800e+002 1.981110372334e+002 1.980977396731e+002 1.980842195745e+002 1.980704775624e+002 1.980565149693e+002 1.980423390362e+002 1.980279468939e+002 1.980133435441e+002 1.979985320174e+002 1.979835162269e+002 1.979682937624e+002 1.979528715537e+002 1.979372506763e+002 1.979214324953e+002 1.979054212448e+002 1.978892203009e+002 1.978728326576e+002 1.978562588167e+002 1.978395025693e+002 1.978225662988e+002 1.978054540987e+002 1.977881680632e+002 1.977707118672e+002 1.977530888433e+002 1.977353000276e+002 1.977173493517e+002 1.976992394666e+002 1.976809745203e+002 1.976625568706e+002 1.976439901859e+002 1.976252784584e+002 1.976064228492e+002 1.975874271582e+002 1.975682941229e+002 1.975490280818e+002 1.975296314754e+002 1.975101085438e+002 1.974904623753e+002 1.974706936546e+002 1.974508115443e+002 1.974308154589e+002 1.974107079832e+002 1.973904952021e+002 1.973701763800e+002 1.973497579913e+002 1.973292442692e+002 1.973086361709e+002 1.972879378115e+002 1.972671527462e+002 1.972462828764e+002 1.972253302400e+002 1.972042983137e+002 1.971831858726e+002 1.971619933561e+002 1.971407181647e+002 1.971193550061e+002 1.970978931105e+002 1.970763172279e+002 1.970546076023e+002 1.970327300309e+002 1.970106459349e+002 1.969883042852e+002 1.969656461154e+002 1.969426017616e+002 1.969191072737e+002 1.968951267433e+002 1.968706783725e+002 1.968458897880e+002 1.968210682033e+002 1.967967963417e+002 1.967741189405e+002 1.967546015099e+002 1.967408602997e+002 1.967364814771e+002 1.967462301607e+002 1.967778961479e+002 1.968403813434e+002 1.969456569127e+002 1.971062123790e+002 1.973452569946e+002 1.976834601663e+002 1.981400545124e+002 1.987509333479e+002 1.995916779059e+002 2.000000000000e+002 2.000000000000e+002 2.000000000000e+002 2.000000000000e+002 2.000000000000e+002 2.000000000000e+002 2.000000000000e+002 2.000000000000e+002 2.000000000000e+002 2.000000000000e+002 2.000000000000e+002 2.000000000000e+002 2.000000000000e+002 1.984464422694e+002 1.970070029685e+002 1.984271863942e+002 1.983937535467e+002 1.983463610934e+002 1.982864516759e+002 1.982140485587e+002 1.968836754740e+002 1.981305559842e+002 1.970451924196e+002 1.971950984194e+002 1.973420703740e+002 1.975570330875e+002 1.976901228539e+002 1.978140277545e+002 1.979293605875e+002 1.980351628940e+002 1.967508529071e+002 1.974508144960e+002 1.980842143465e+002 1.980835877304e+002 1.979835158192e+002 1.978728322013e+002 1.977530892275e+002 1.976252794843e+002 1.984127708175e+002 1.983729061076e+002 1.983195367297e+002 1.976252767842e+002 1.977499102364e+002 1.978741616529e+002 1.979807989042e+002 1.982536350467e+002 1.981741005253e+002 1.969650020377e+002 1.971169302900e+002 1.972695164942e+002 1.981746629952e+002 1.982525272824e+002 1.983186223244e+002 1.983718881108e+002 1.984120407506e+002 1.972669448740e+002 1.971191644585e+002 1.969657840312e+002 1.984383699847e+002 1.984381918452e+002 1.974078252697e+002 1.974957309123e+002 1.967478479903e+002 1.968006259406e+002 1.984505855227e+002 1.976947638306e+002 1.984506207908e+002 1.976998350198e+002 1.967736462705e+002 1.968199817615e+002 1.973858757416e+002 1.975129024801e+002 1.984270697520e+002 1.980351647095e+002 1.983936401577e+002 1.979293653520e+002 1.978140323963e+002 1.976901264057e+002 1.975627667867e+002 1.981304319509e+002 1.983469725348e+002 1.982878833521e+002 1.982157471426e+002 1.970435265618e+002 1.971919174871e+002 1.981306803756e+002 1.982147490340e+002 1.982870428426e+002 1.983468382033e+002 1.976900945374e+002 1.978140015911e+002 1.979293350967e+002 1.983936402067e+002 1.980354244218e+002 1.984270651069e+002 1.973395153590e+002 1.971937584079e+002 1.970437299774e+002 1.968831585033e+002 1.984456403579e+002 1.984457728705e+002 1.969409977231e+002 1.968967472203e+002 1.975722061499e+002 1.973237794431e+002 1.984516462909e+002 1.982098766505e+002 1.967529960125e+002 1.970114427438e+002 1.967486724139e+002 1.974393644609e+002 1.973973985929e+002 1.975041202585e+002 1.967635725219e+002 1.968043941580e+002 1.974512641407e+002 1.984405325809e+002 1.983261417213e+002 1.983653150771e+002 1.982616457665e+002 1.984073058063e+002 1.981848525529e+002 1.979960133947e+002 1.977677536654e+002 1.976408484023e+002 1.978876206143e+002 1.969877208517e+002 1.972483340178e+002 1.971000678397e+002 1.980718133950e+002 1.974508127936e+002 1.984520979854e+002 1.986348530826e+002 1.984520979643e+002 1.986133420647e+002 1.980038791555e+002 1.978950653688e+002 1.977770073008e+002 1.976506834891e+002 1.981575173572e+002 1.980649145558e+002 1.981025421163e+002 1.982381413901e+002 1.972953937336e+002 1.983066722991e+002 1.971483869268e+002 1.983625400433e+002 1.969964007417e+002 1.984052870902e+002 1.984050894018e+002 1.984185975016e+002 1.983622661749e+002 1.983808595693e+002 1.983058428685e+002 1.983295953404e+002 1.982371458267e+002 1.982658543246e+002 1.969998302200e+002 1.981897152537e+002 1.981574825712e+002 1.971504634410e+002 1.970911184436e+002 1.976507788958e+002 1.977777184727e+002 1.978963659456e+002 1.977294948668e+002 1.978507724138e+002 1.980032159498e+002 1.979633111744e+002 1.972448051629e+002 1.981025774886e+002 1.980675492629e+002 1.984182854538e+002 1.969342619781e+002 1.983797614303e+002 1.970933650369e+002 1.983286908485e+002 1.972418746797e+002 1.982647482997e+002 1.975965309921e+002 1.977270539068e+002 1.978485655156e+002 1.979609405446e+002 1.981884938667e+002 1.967445303446e+002 1.984343692698e+002 1.984342249423e+002 1.975166358218e+002 1.973815439284e+002 1.968325690872e+002 1.981013913923e+002 1.978512639360e+002 1.979640231400e+002 1.977303255129e+002 1.975969176362e+002 1.969361199004e+002 1.971466065669e+002 1.984180105311e+002 1.972941414229e+002 1.983801893673e+002 1.983074378382e+002 1.981585840218e+002 1.982390594387e+002 1.969428358394e+002 1.984414465774e+002 1.984414460671e+002 1.974820081421e+002 1.967776350810e+002 1.984346752039e+002 1.981122271473e+002 1.981486322186e+002 1.982304392523e+002 1.973090130555e+002 1.983002364098e+002 1.971636413875e+002 1.977160025160e+002 1.978382426435e+002 1.979517114390e+002 1.984211279114e+002 1.969190012604e+002 1.983851992691e+002 1.967891690318e+002 1.975890429084e+002 1.984492050989e+002 1.984490312202e+002 1.984320385428e+002 1.976088394222e+002 1.972853803261e+002 1.975319224630e+002 1.973671598288e+002 1.973379124055e+002 1.968503629858e+002 1.968313844929e+002 1.967468781739e+002 1.968510277774e+002 1.980126466680e+002 1.979049127220e+002 1.977876179835e+002 1.976619716923e+002 1.983583547231e+002 1.970096358923e+002 1.984022303974e+002 1.980559357043e+002 1.981973782467e+002 1.983576902471e+002 1.982730093166e+002 1.984017344321e+002 1.983354490986e+002 1.980144002673e+002 1.979048677907e+002 1.977888926076e+002 1.976633283454e+002 1.970118710565e+002 1.972259543954e+002 1.970755572083e+002 1.970754712270e+002 1.983354437834e+002 1.972244624352e+002 1.982729968240e+002 1.981981719225e+002 1.980559253587e+002 1.984521701247e+002 1.984522120080e+002 1.987121007413e+002 1.986282615773e+002 1.984495232688e+002 1.973981161309e+002 1.984437353296e+002 1.984441285953e+002 1.971545052143e+002 1.984481238500e+002 1.969031501969e+002 1.974350013141e+002 1.973619513027e+002 1.975378574425e+002 1.968646546756e+002 1.968286854552e+002 1.973480868475e+002 1.967785636589e+002 1.967754769170e+002 1.975514110085e+002 1.967411307475e+002 1.973992299369e+002 1.974798528597e+002 1.967367732905e+002 1.971571176350e+002 1.981531553197e+002 1.982337842914e+002 1.983030348828e+002 1.983840367159e+002 1.984206090072e+002 1.981072517690e+002 1.975914491605e+002 1.977210367400e+002 1.978429468116e+002 1.979560442544e+002 1.974207142681e+002 1.967788929080e+002 1.974839634991e+002 1.974152363786e+002 1.984328921130e+002 1.984475945650e+002 1.969256629764e+002 1.972992875702e+002 1.972092202175e+002 1.975846265225e+002 1.984502756524e+002 1.967389793214e+002 1.980272593618e+002 1.979206781411e+002 1.978046408610e+002 1.976801083064e+002 1.981366417090e+002 1.981244187475e+002 1.980432282928e+002 1.982208315758e+002 1.982921684040e+002 1.973282774530e+002 1.983509648911e+002 1.971821923546e+002 1.983967336047e+002 1.970317049241e+002 1.984250316317e+002 1.983965379423e+002 1.983510858084e+002 1.982924554295e+002 1.982211719007e+002 1.970316589990e+002 1.971815931399e+002 1.976807778208e+002 1.978045050503e+002 1.979205527359e+002 1.984249381417e+002 1.968963047945e+002 1.975701205862e+002 1.984273540903e+002 1.984448120088e+002 1.984448138795e+002 1.969079395005e+002 1.968445107721e+002 1.968883779558e+002 1.974725162638e+002 1.984146520053e+002 1.983755611768e+002 1.983137548485e+002 1.982466531704e+002 1.981663145346e+002 1.969531971039e+002 1.971312637303e+002 1.972787047340e+002 1.979755793237e+002 1.977438054416e+002 1.976155934501e+002 1.978621943465e+002 1.980929399984e+002 1.984367477931e+002 1.984509274221e+002 1.984509282815e+002 1.983926580901e+002 1.982885523579e+002 1.982165401284e+002 1.971904110857e+002 1.976932290850e+002 1.978169388544e+002 1.979320506765e+002 1.978435825898e+002 1.974295525561e+002 1.981329522088e+002 1.981282269430e+002 1.975623247639e+002 1.984524953690e+002 1.991308809656e+002 1.973139122781e+002 1.975830675524e+002 1.981736526967e+002 1.982520385689e+002 1.983182178189e+002 1.984120425406e+002 1.983719052874e+002 1.972679257998e+002 1.971201526562e+002 1.969656597966e+002 1.978728312902e+002 1.979835151780e+002 1.976252768601e+002 1.977530876358e+002 1.984120396448e+002 1.983718905534e+002 1.977530840909e+002 1.978731144884e+002 1.983185335681e+002 1.979836509565e+002 1.982524214395e+002 1.981742122769e+002 1.971194733839e+002 1.980847214453e+002 1.980842137554e+002 1.967661444181e+002 1.973675361686e+002 1.967614188762e+002 1.975986773065e+002 1.974558228130e+002 1.984421625199e+002 1.984419191856e+002 1.975096361878e+002 1.975207273040e+002 1.974649961823e+002 1.981424288970e+002 1.980216674878e+002 1.980484842969e+002 1.981184935554e+002 1.979440158719e+002 1.978298982407e+002 1.977070754943e+002 1.982042192342e+002 1.970642191271e+002 1.972134300609e+002 1.983885684831e+002 1.983396212279e+002 1.982781320901e+002 1.983881793710e+002 1.970640036558e+002 1.983396235103e+002 1.972133882994e+002 1.977070768223e+002 1.978298996341e+002 1.979418428211e+002 1.982781336396e+002 1.982042200021e+002 1.979577634610e+002 1.968086489774e+002 1.984510975792e+002 1.979180874692e+002 1.980356910582e+002 1.980346381550e+002 1.970432749939e+002 1.970429798947e+002 1.983471148862e+002 1.983470509497e+002 1.984487194075e+002 1.967381397667e+002 1.971113951342e+002 1.968979302678e+002 1.967473106723e+002 1.984525219730e+002 1.992111261185e+002 1.984525388457e+002 1.991559506757e+002 1.967533006950e+002 1.984303568374e+002 1.984304243486e+002 1.982144351362e+002 1.982867777682e+002 1.971943634716e+002 1.979286699413e+002 1.976893234055e+002 1.978132787310e+002 1.983936978355e+002 1.968156927372e+002 1.968205210982e+002 1.968429427921e+002 1.975416399107e+002 1.973577487235e+002 1.968545584255e+002 1.968613748261e+002 1.969713818588e+002 1.973948654622e+002 1.968382645703e+002 1.984380003108e+002 1.984380007215e+002 1.973798322059e+002 1.975270892371e+002 1.984342261657e+002 1.973240805840e+002 1.975305991843e+002 1.975078553755e+002 1.983804309497e+002 1.969345385606e+002 1.984182434166e+002 1.977161837936e+002 1.978381059952e+002 1.979518672184e+002 1.981130174423e+002 1.971491669499e+002 1.983063499812e+002 1.972959495411e+002 1.982377549551e+002 1.981476840127e+002 1.984269637535e+002 1.967761640509e+002 1.974823034987e+002 1.974348244431e+002 1.973389221771e+002 1.967472524142e+002 1.984525652385e+002 1.992686191080e+002 1.984525662660e+002 1.993291025611e+002 1.972388739402e+002 1.968844241897e+002 1.974477457016e+002 1.973954965662e+002 1.984488620694e+002 1.972597402134e+002 1.976307144215e+002 1.968181918802e+002 1.975442835272e+002 1.967444626814e+002 1.981893458108e+002 1.982654752612e+002 1.983292870270e+002 1.972403458509e+002 1.970918062575e+002 1.983360427065e+002 1.984013795321e+002 1.982737394079e+002 1.983572317838e+002 1.981990505775e+002 1.970739371473e+002 1.972228896726e+002 1.970133909737e+002 1.976645053654e+002 1.979073137542e+002 1.977899618868e+002 1.980150735337e+002 1.984049606073e+002 1.983620955785e+002 1.969978573476e+002 1.980665262613e+002 1.976492690426e+002 1.977756762703e+002 1.978938291616e+002 1.980027470830e+002 1.980550608787e+002 1.980842158292e+002 1.979835075584e+002 1.977530827823e+002 1.978728305708e+002 1.976252743217e+002 1.984120447203e+002 1.983718915678e+002 1.983186578929e+002 1.981741026021e+002 1.982525711410e+002 1.969661742644e+002 1.971191197447e+002 1.972671415369e+002 1.973558059509e+002 1.968540440910e+002 1.984486087681e+002 1.972321516426e+002 1.980533920029e+002 1.980165919181e+002 1.979087256292e+002 1.977917343835e+002 1.976663548434e+002 1.983560993380e+002 1.984005807586e+002 1.970165226670e+002 1.983368644355e+002 1.982745523978e+002 1.981999008716e+002 1.970716218993e+002 1.972213134769e+002 1.974440665431e+002 1.984383721436e+002 1.974280097811e+002 1.984404503580e+002 1.980823998434e+002 1.980853912055e+002 1.979867687176e+002 1.978763280184e+002 1.977569026422e+002 1.976293269431e+002 1.984114068866e+002 1.983709999185e+002 1.983169560467e+002 1.982505150881e+002 1.981756950497e+002 1.971234035584e+002 1.981730645765e+002 1.977554371480e+002 1.978706393738e+002 1.979855197623e+002 1.982517495466e+002 1.983179780340e+002 1.972685039865e+002 1.983719734381e+002 1.971207552244e+002 1.984121015018e+002 1.969654075011e+002 1.967515463227e+002 1.983662532034e+002 1.969846216991e+002 1.984079879140e+002 1.977668486133e+002 1.979952441151e+002 1.978864998026e+002 1.976398868125e+002 1.971030403642e+002 1.983249695657e+002 1.972512463648e+002 1.982602229346e+002 1.981829680697e+002 1.980740227334e+002 1.970409888442e+002 1.984525443935e+002 1.992203953405e+002 1.984433910916e+002 1.984473117332e+002 1.984473098660e+002 1.974235150739e+002 1.974778746078e+002 1.968104817361e+002 1.969693927154e+002 1.984322175546e+002 1.970638993279e+002 1.984379840987e+002 1.984379030198e+002 1.968769847564e+002 1.981472286903e+002 1.982294073892e+002 1.973114695537e+002 1.982993721805e+002 1.971656703132e+002 1.979529797871e+002 1.978382596191e+002 1.977174780270e+002 1.981128031587e+002 1.984217316148e+002 1.969134021127e+002 1.983857814584e+002 1.973381666972e+002 1.975606487053e+002 1.974101083660e+002 1.967648947002e+002 1.968963116910e+002 1.984517751855e+002 1.983417374378e+002 1.984517748824e+002 1.982971015199e+002 1.976319831034e+002 1.972603241640e+002 1.975828363508e+002 1.967460042585e+002 1.984233431893e+002 1.979068420565e+002 1.973840379541e+002 1.974986913047e+002 1.974068061217e+002 1.968034374955e+002 1.967491260360e+002 1.967544139680e+002 1.972909643715e+002 1.967489296370e+002 1.967744043013e+002 1.974192524348e+002 1.969437081544e+002 1.967982763732e+002 1.974621929310e+002 1.973724794229e+002 1.975028464472e+002 1.973925827074e+002 1.984457641366e+002 1.973716714305e+002 1.969286458916e+002 1.980946132868e+002 1.981177628349e+002 1.984232259913e+002 1.983880248812e+002 1.984160802558e+002 1.983772908728e+002 1.982995953613e+002 1.982296717677e+002 1.971652114659e+002 1.981648107263e+002 1.981431393506e+002 1.976074308982e+002 1.975802648034e+002 1.977364685578e+002 1.977083697703e+002 1.978311088405e+002 1.978573710695e+002 1.979692388734e+002 1.979450863507e+002 1.976663806179e+002 1.984505266784e+002 1.984505068582e+002 1.984516884217e+002 1.984516889593e+002 1.980246761512e+002 1.984513698280e+002 1.980058731347e+002 1.978972452777e+002 1.977793544043e+002 1.976531786238e+002 1.980635740567e+002 1.981043360382e+002 1.981558679320e+002 1.982367157156e+002 1.972981718722e+002 1.983054842126e+002 1.971512373603e+002 1.983616005929e+002 1.969993790666e+002 1.984046027690e+002 1.984045927086e+002 1.983615860235e+002 1.984189005967e+002 1.983054288401e+002 1.982366496212e+0