<?xml version="1.0"?>
<VTKFile type="UnstructuredGrid" version="0.1" byte_order="LittleEndian">
  <UnstructuredGrid>
    <Piece NumberOfPoints="2604" NumberOfCells="4910">
      <Points>
        <DataArray type="Float64" NumberOfComponents="3" format="ascii">
          0.000000000000e+000 0.000000000000e+000 0.000000000000e+000
          2.000000000000e+002 0.000000000000e+000 0.000000000000e+000
          2.000000000000e+002 2.000000000000e+001 0.000000000000e+000
          0.000000000000e+000 2.000000000000e+001 0.000000000000e+000
          1.492537313427e+000 0.000000000000e+000 0.000000000000e+000
          2.985074626854e+000 0.000000000000e+000 0.000000000000e+000
          4.477611940281e+000 0.000000000000e+000 0.000000000000e+000
          5.970149253708e+000 0.000000000000e+000 0.000000000000e+000
          7.462686567135e+000 0.000000000000e+000 0.000000000000e+000
          8.955223880561e+000 0.000000000000e+000 0.000000000000e+000
          1.044776119399e+001 0.000000000000e+000 0.000000000000e+000
          1.194029850741e+001 0.000000000000e+000 0.000000000000e+000
          1.343283582084e+001 0.000000000000e+000 0.000000000000e+000
          1.492537313427e+001 0.000000000000e+000 0.000000000000e+000
          1.641791044770e+001 0.000000000000e+000 0.000000000000e+000
          1.791044776112e+001 0.000000000000e+000 0.000000000000e+000
          1.940298507455e+001 0.000000000000e+000 0.000000000000e+000
          2.089552238798e+001 0.000000000000e+000 0.000000000000e+000
          2.238805970141e+001 0.000000000000e+000 0.000000000000e+000
          2.388059701484e+001 0.000000000000e+000 0.000000000000e+000
          2.537313432826e+001 0.000000000000e+000 0.000000000000e+000
          2.686567164169e+001 0.000000000000e+000 0.000000000000e+000
          2.835820895511e+001 0.000000000000e+000 0.000000000000e+000
          2.985074626854e+001 0.000000000000e+000 0.000000000000e+000
          3.134328358196e+001 0.000000000000e+000 0.000000000000e+000
          3.283582089539e+001 0.000000000000e+000 0.000000000000e+000
          3.432835820881e+001 0.000000000000e+000 0.000000000000e+000
          3.582089552224e+001 0.000000000000e+000 0.000000000000e+000
          3.731343283566e+001 0.000000000000e+000 0.000000000000e+000
          3.880597014909e+001 0.000000000000e+000 0.000000000000e+000
          4.029850746251e+001 0.000000000000e+000 0.000000000000e+000
          4.179104477594e+001 0.000000000000e+000 0.000000000000e+000
          4.328358208936e+001 0.000000000000e+000 0.000000000000e+000
          4.477611940279e+001 0.000000000000e+000 0.000000000000e+000
          4.626865671621e+001 0.000000000000e+000 0.000000000000e+000
          4.776119402964e+001 0.000000000000e+000 0.000000000000e+000
          4.925373134306e+001 0.000000000000e+000 0.000000000000e+000
          5.074626865649e+001 0.000000000000e+000 0.000000000000e+000
          5.223880596991e+001 0.000000000000e+000 0.000000000000e+000
          5.373134328334e+001 0.000000000000e+000 0.000000000000e+000
          5.522388059676e+001 0.000000000000e+000 0.000000000000e+000
          5.671641791019e+001 0.000000000000e+000 0.000000000000e+000
          5.820895522361e+001 0.000000000000e+000 0.000000000000e+000
          5.970149253704e+001 0.000000000000e+000 0.000000000000e+000
          6.119402985046e+001 0.000000000000e+000 0.000000000000e+000
          6.268656716389e+001 0.000000000000e+000 0.000000000000e+000
          6.417910447732e+001 0.000000000000e+000 0.000000000000e+000
          6.567164179075e+001 0.000000000000e+000 0.000000000000e+000
          6.716417910418e+001 0.000000000000e+000 0.000000000000e+000
          6.865671641761e+001 0.000000000000e+000 0.000000000000e+000
          7.014925373104e+001 0.000000000000e+000 0.000000000000e+000
          7.164179104447e+001 0.000000000000e+000 0.000000000000e+000
          7.313432835790e+001 0.000000000000e+000 0.000000000000e+000
          7.462686567133e+001 0.000000000000e+000 0.000000000000e+000
          7.611940298476e+001 0.000000000000e+000 0.000000000000e+000
          7.761194029819e+001 0.000000000000e+000 0.000000000000e+000
          7.910447761162e+001 0.000000000000e+000 0.000000000000e+000
          8.059701492505e+001 0.000000000000e+000 0.000000000000e+000
          8.208955223848e+001 0.000000000000e+000 0.000000000000e+000
          8.358208955191e+001 0.000000000000e+000 0.000000000000e+000
          8.507462686534e+001 0.000000000000e+000 0.000000000000e+000
          8.656716417877e+001 0.000000000000e+000 0.000000000000e+000
          8.805970149220e+001 0.000000000000e+000 0.000000000000e+000
          8.955223880563e+001 0.000000000000e+000 0.000000000000e+000
          9.104477611907e+001 0.000000000000e+000 0.000000000000e+000
          9.253731343250e+001 0.000000000000e+000 0.000000000000e+000
          9.402985074593e+001 0.000000000000e+000 0.000000000000e+000
          9.552238805936e+001 0.000000000000e+000 0.000000000000e+000
          9.701492537279e+001 0.000000000000e+000 0.000000000000e+000
          9.850746268622e+001 0.000000000000e+000 0.000000000000e+000
          9.999999999965e+001 0.000000000000e+000 0.000000000000e+000
          1.014925373131e+002 0.000000000000e+000 0.000000000000e+000
          1.029850746265e+002 0.000000000000e+000 0.000000000000e+000
          1.044776119399e+002 0.000000000000e+000 0.000000000000e+000
          1.059701492534e+002 0.000000000000e+000 0.000000000000e+000
          1.074626865668e+002 0.000000000000e+000 0.000000000000e+000
          1.089552238802e+002 0.000000000000e+000 0.000000000000e+000
          1.104477611937e+002 0.000000000000e+000 0.000000000000e+000
          1.119402985071e+002 0.000000000000e+000 0.000000000000e+000
          1.134328358205e+002 0.000000000000e+000 0.000000000000e+000
          1.149253731340e+002 0.000000000000e+000 0.000000000000e+000
          1.164179104474e+002 0.000000000000e+000 0.000000000000e+000
          1.179104477608e+002 0.000000000000e+000 0.000000000000e+000
          1.194029850742e+002 0.000000000000e+000 0.000000000000e+000
          1.208955223877e+002 0.000000000000e+000 0.000000000000e+000
          1.223880597011e+002 0.000000000000e+000 0.000000000000e+000
          1.238805970145e+002 0.000000000000e+000 0.000000000000e+000
          1.253731343280e+002 0.000000000000e+000 0.000000000000e+000
          1.268656716414e+002 0.000000000000e+000 0.000000000000e+000
          1.283582089548e+002 0.000000000000e+000 0.000000000000e+000
          1.298507462683e+002 0.000000000000e+000 0.000000000000e+000
          1.313432835817e+002 0.000000000000e+000 0.000000000000e+000
          1.328358208952e+002 0.000000000000e+000 0.000000000000e+000
          1.343283582086e+002 0.000000000000e+000 0.000000000000e+000
          1.358208955220e+002 0.000000000000e+000 0.000000000000e+000
          1.373134328355e+002 0.000000000000e+000 0.000000000000e+000
          1.388059701489e+002 0.000000000000e+000 0.000000000000e+000
          1.402985074624e+002 0.000000000000e+000 0.000000000000e+000
          1.417910447758e+002 0.000000000000e+000 0.000000000000e+000
          1.432835820892e+002 0.000000000000e+000 0.000000000000e+000
          1.447761194027e+002 0.000000000000e+000 0.000000000000e+000
          1.462686567161e+002 0.000000000000e+000 0.000000000000e+000
          1.477611940296e+002 0.000000000000e+000 0.000000000000e+000
          1.492537313430e+002 0.000000000000e+000 0.000000000000e+000
          1.507462686564e+002 0.000000000000e+000 0.000000000000e+000
          1.522388059699e+002 0.000000000000e+000 0.000000000000e+000
          1.537313432833e+002 0.000000000000e+000 0.000000000000e+000
          1.552238805968e+002 0.000000000000e+000 0.000000000000e+000
          1.567164179102e+002 0.000000000000e+000 0.000000000000e+000
          1.582089552237e+002 0.000000000000e+000 0.000000000000e+000
          1.597014925371e+002 0.000000000000e+000 0.000000000000e+000
          1.611940298505e+002 0.000000000000e+000 0.000000000000e+000
          1.626865671640e+002 0.000000000000e+000 0.000000000000e+000
          1.641791044774e+002 0.000000000000e+000 0.000000000000e+000
          1.656716417909e+002 0.000000000000e+000 0.000000000000e+000
          1.671641791043e+002 0.000000000000e+000 0.000000000000e+000
          1.686567164177e+002 0.000000000000e+000 0.000000000000e+000
          1.701492537312e+002 0.000000000000e+000 0.000000000000e+000
          1.716417910446e+002 0.000000000000e+000 0.000000000000e+000
          1.731343283581e+002 0.000000000000e+000 0.000000000000e+000
          1.746268656715e+002 0.000000000000e+000 0.000000000000e+000
          1.761194029849e+002 0.000000000000e+000 0.000000000000e+000
          1.776119402984e+002 0.000000000000e+000 0.000000000000e+000
          1.791044776118e+002 0.000000000000e+000 0.000000000000e+000
          1.805970149253e+002 0.000000000000e+000 0.000000000000e+000
          1.820895522387e+002 0.000000000000e+000 0.000000000000e+000
          1.835820895521e+002 0.000000000000e+000 0.000000000000e+000
          1.850746268656e+002 0.000000000000e+000 0.000000000000e+000
          1.865671641790e+002 0.000000000000e+000 0.000000000000e+000
          1.880597014925e+002 0.000000000000e+000 0.000000000000e+000
          1.895522388059e+002 0.000000000000e+000 0.000000000000e+000
          1.910447761194e+002 0.000000000000e+000 0.000000000000e+000
          1.925373134328e+002 0.000000000000e+000 0.000000000000e+000
          1.940298507462e+002 0.000000000000e+000 0.000000000000e+000
          1.955223880597e+002 0.000000000000e+000 0.000000000000e+000
          1.970149253731e+002 0.000000000000e+000 0.000000000000e+000
          1.985074626866e+002 0.000000000000e+000 0.000000000000e+000
          2.000000000000e+002 1.428571428570e+000 0.000000000000e+000
          2.000000000000e+002 2.857142857140e+000 0.000000000000e+000
[...]
      <PointData Scalars="MEAN_PRESSURE">
        <DataArray type="Float64" Name="MEAN_PRESSURE" format="ascii">
          2.000000000000e+002 1.997942576277e+002 1.997942563067e+002 2.000000000000e+002 1.992809896628e+002 1.979971255167e+002 1.972346955813e+002 1.967960458364e+002 1.965786678081e+002 1.964984861952e+002 1.964893209691e+002 1.965174228945e+002 1.965608060828e+002 1.966091369606e+002 1.966580351069e+002 1.967061336861e+002 1.967533283260e+002 1.967998500436e+002 1.968459848091e+002 1.968919247708e+002 1.969377820097e+002 1.969835846153e+002 1.970293543838e+002 1.970750793001e+002 1.971207393675e+002 1.971663116572e+002 1.972117811223e+002 1.972571265614e+002 1.973023252258e+002 1.973473619554e+002 1.973922193055e+002 1.974368863737e+002 1.974813412833e+002 1.975255733156e+002 1.975695678475e+002 1.976133084521e+002 1.976567877647e+002 1.976999853828e+002 1.977428944294e+002 1.977855061667e+002 1.978277994685e+002 1.978697583455e+002 1.979113868932e+002 1.979526647778e+002 1.979935871601e+002 1.980341408201e+002 1.980743235953e+002 1.981141043782e+002 1.981535048473e+002 1.981924915395e+002 1.982310616540e+002 1.982692122616e+002 1.983069441108e+002 1.983442162980e+002 1.983810563322e+002 1.984174473490e+002 1.984533881279e+002 1.984888560041e+002 1.985238527532e+002 1.985583986104e+002 1.985924413454e+002 1.986260038079e+002 1.986590793387e+002 1.986916732853e+002 1.987237683599e+002 1.987553654778e+002 1.987864634645e+002 1.988170545872e+002 1.988471458538e+002 1.988767236970e+002 1.989058034196e+002 1.989343629837e+002 1.989624182829e+002 1.989899596945e+002 1.990169869324e+002 1.990435076546e+002 1.990695105734e+002 1.990950117793e+002 1.991199980524e+002 1.991444770763e+002 1.991684404698e+002 1.991919057397e+002 1.992148605810e+002 1.992373169480e+002 1.992592688219e+002 1.992807210379e+002 1.993016793616e+002 1.993221433086e+002 1.993421158563e+002 1.993616010176e+002 1.993806017250e+002 1.993991220791e+002 1.994171655906e+002 1.994347322196e+002 1.994518234014e+002 1.994684533294e+002 1.994846144828e+002 1.995003165718e+002 1.995155640868e+002 1.995303624318e+002 1.995447109736e+002 1.995586115600e+002 1.995720779199e+002 1.995851033523e+002 1.995976974743e+002 1.996098649781e+002 1.996216113260e+002 1.996329362077e+002 1.996438415719e+002 1.996543404138e+002 1.996644264725e+002 1.996741085489e+002 1.996833919117e+002 1.996922824529e+002 1.997007771475e+002 1.997088786696e+002 1.997165995197e+002 1.997239331426e+002 1.997308873551e+002 1.997374662488e+002 1.997436752025e+002 1.997495132939e+002 1.997549802751e+002 1.997600818584e+002 1.997648199917e+002 1.997691942795e+002 1.997732143335e+002 1.997768818270e+002 1.997801890519e+002 1.997831507476e+002 1.997857656824e+002 1.997880126097e+002 1.997899163457e+002 1.997914738159e+002 1.997927036773e+002 1.997935340797e+002 1.997940683920e+002 1.997942391410e+002 1.997942219257e+002 1.997942593113e+002 1.997942518114e+002 1.997942481383e+002 1.997942413911e+002 1.997942369646e+002 1.997942400356e+002 1.997942403904e+002 1.997942319489e+002 1.997942552849e+002 1.997942198188e+002 1.997942376810e+002 1.997940672033e+002 1.997935331378e+002 1.997927028626e+002 1.997914730109e+002 1.997899157274e+002 1.997880130975e+002 1.997857672459e+002 1.997831525381e+002 1.997801907402e+002 1.997768834146e+002 1.997732147415e+002 1.997691949782e+002 1.997648198080e+002 1.997600807246e+002 1.997549794329e+002 1.997495115595e+002 1.997436730122e+002 1.997374711005e+002 1.997308913728e+002 1.997239341774e+002 1.997165993015e+002 1.997088799801e+002 1.997007739137e+002 1.996922820020e+002 1.996833948941e+002 1.996741125716e+002 1.996644264754e+002 1.996543391959e+002 1.996438392598e+002 1.996329348891e+002 1.996216094667e+002 1.996098658120e+002 1.995976990251e+002 1.995851004515e+002 1.995720760408e+002 1.995586096932e+002 1.995447104921e+002 1.995303612055e+002 1.995155652516e+002 1.995003178973e+002 1.994846108955e+002 1.994684512401e+002 1.994518219420e+002 1.994347323796e+002 1.994171651729e+002 1.993991191002e+002 1.993806029506e+002 1.993616018660e+002 1.993421162435e+002 1.993221432732e+002 1.993016808337e+002 1.992807262478e+002 1.992592731103e+002 1.992373166428e+002 1.992148656955e+002 1.991919059840e+002 1.991684416263e+002 1.991444722936e+002 1.991200000540e+002 1.990950114201e+002 1.990695163069e+002 1.990435100584e+002 1.990169888453e+002 1.989899565242e+002 1.989624149359e+002 1.989343651466e+002 1.989058015944e+002 1.988767278675e+002 1.988471438644e+002 1.988170545710e+002 1.987864595763e+002 1.987553632087e+002 1.987237690913e+002 1.986916742131e+002 1.986590844473e+002 1.986260020376e+002 1.985924341359e+002 1.985583826505e+002 1.985238538217e+002 1.984888552798e+002 1.984533857468e+002 1.984174527715e+002 1.983810605349e+002 1.983442190241e+002 1.983069320760e+002 1.982692099734e+002 1.982310593080e+002 1.981924785186e+002 1.981534961278e+002 1.981141066233e+002 1.980743159332e+002 1.980341428695e+002 1.979935816330e+002 1.979526533682e+002 1.979113713895e+002 1.978697373101e+002 1.978277651140e+002 1.977854675810e+002 1.977428525605e+002 1.976999299560e+002 1.976567178312e+002 1.976132206438e+002 1.975694539435e+002 1.975254300486e+002 1.974811617287e+002 1.974366584379e+002 1.973919317293e+002 1.973469979911e+002 1.973018634447e+002 1.972565422721e+002 1.972110456016e+002 1.971653844410e+002 1.971195653202e+002 1.970735953669e+002 1.970274790046e+002 1.969812125732e+002 1.969347777446e+002 1.968881293908e+002 1.968411869917e+002 1.967937732520e+002 1.967456650935e+002 1.966964734389e+002 1.966458773702e+002 1.965939313981e+002 1.965420064355e+002 1.964946503476e+002 1.964627645784e+002 1.964657468455e+002 1.965468444588e+002 1.967669348580e+002 1.972029499677e+002 1.979750604472e+002 1.992561114715e+002 2.000000000000e+002 2.000000000000e+002 2.000000000000e+002 2.000000000000e+002 2.000000000000e+002 2.000000000000e+002 2.000000000000e+002 2.000000000000e+002 2.000000000000e+002 2.000000000000e+002 2.000000000000e+002 2.000000000000e+002 2.000000000000e+002 1.997864507680e+002 1.964647000778e+002 1.997626451329e+002 1.997204518039e+002 1.996587957400e+002 1.995778217894e+002 1.994755701007e+002 1.970053935568e+002 1.993519087172e+002 1.973274690241e+002 1.976377589867e+002 1.979371939787e+002 1.983595494254e+002 1.986092678089e+002 1.988321498403e+002 1.990302993150e+002 1.992034331767e+002 1.967297581575e+002 1.981535027817e+002 1.992807145784e+002 1.992797435091e+002 1.991199990259e+002 1.989343637621e+002 1.987237700997e+002 1.984888584159e+002 1.997445869625e+002 1.996935964620e+002 1.996229526205e+002 1.984888492903e+002 1.987180436402e+002 1.989366467360e+002 1.991155476904e+002 1.995320615479e+002 1.994171562511e+002 1.971638107036e+002 1.974760721074e+002 1.977902718846e+002 1.994179910873e+002 1.995305002157e+002 1.996217195062e+002 1.996922722721e+002 1.997436658974e+002 1.977850371969e+002 1.974807479234e+002 1.971655908835e+002 1.997765157175e+002 1.997762957232e+002 1.980685906072e+002 1.982413074365e+002 1.965978170453e+002 1.968484545256e+002 1.997915250870e+002 1.967802513767e+002 1.997915681725e+002 1.967673495560e+002 1.965706993759e+002 1.968851786064e+002 1.980249375656e+002 1.982746232477e+002 1.997625006171e+002 1.992034375376e+002 1.997203074855e+002 1.990303118933e+002 1.988321632843e+002 1.986092791264e+002 1.983705097529e+002 1.993517209025e+002 1.996596035743e+002 1.995797952938e+002 1.994780232545e+002 1.973239680511e+002 1.976311923603e+002 1.993520972672e+002 1.994765814482e+002 1.995786367250e+002 1.996594268859e+002 1.986092120815e+002 1.988321013279e+002 1.990302533994e+002 1.997203074482e+002 1.992038489900e+002 1.997624945921e+002 1.979320618429e+002 1.976350096243e+002 1.973245098310e+002 1.970046554314e+002 1.997854667450e+002 1.997856294209e+002 1.964606670686e+002 1.970300180551e+002 1.983885136144e+002 1.979003407884e+002 1.997928214675e+002 1.972839158247e+002 1.967344306496e+002 1.964811011600e+002 1.967269991307e+002 1.981309640562e+002 1.980478788399e+002 1.982575972678e+002 1.965751548477e+002 1.968553860556e+002 1.981543861769e+002 1.997791837971e+002 1.996318417146e+002 1.996837100854e+002 1.995433233694e+002 1.997376858003e+002 1.994330111568e+002 1.991403742287e+002 1.987500680195e+002 1.985179860689e+002 1.989596765540e+002 1.972097243445e+002 1.977470305439e+002 1.974411196604e+002 1.992613545561e+002 1.981534984144e+002 1.997933731656e+002 1.978230833863e+002 1.997933731563e+002 1.977860458806e+002 1.991531404076e+002 1.989723675791e+002 1.987665952562e+002 1.985363192099e+002 1.993924971534e+002 1.992505428486e+002 1.993090826248e+002 1.995101174418e+002 1.978428962938e+002 1.996055242098e+002 1.975413013161e+002 1.996800840213e+002 1.972274782834e+002 1.997351301960e+002 1.997348806649e+002 1.997519098462e+002 1.996797277120e+002 1.997038895556e+002 1.996043972387e+002 1.996364710179e+002 1.995087028004e+002 1.995492132792e+002 1.972342179161e+002 1.994401539606e+002 1.993924446523e+002 1.975455524368e+002 1.974225111164e+002 1.985365110832e+002 1.987678697996e+002 1.989745825482e+002 1.986811492222e+002 1.988962981567e+002 1.991520667360e+002 1.990867877472e+002 1.977398112165e+002 1.993091362472e+002 1.992546785242e+002 1.997515188552e+002 1.971031313176e+002 1.997024723502e+002 1.974272624205e+002 1.996352608395e+002 1.977338292806e+002 1.995476682429e+002 1.984346982507e+002 1.986767293155e+002 1.988924783019e+002 1.990828790777e+002 1.994383639522e+002 1.967083321123e+002 1.997715678247e+002 1.997713889852e+002 1.982818421468e+002 1.980162913114e+002 1.969097671900e+002 1.993073099704e+002 1.988971476532e+002 1.990879605288e+002 1.986826528590e+002 1.984354252567e+002 1.971065497036e+002 1.975375874548e+002 1.997511735859e+002 1.978403541707e+002 1.997030249352e+002 1.996065662554e+002 1.993940909656e+002 1.995114248281e+002 1.971196363038e+002 1.997803099400e+002 1.997803092795e+002 1.982145792656e+002 1.965426697379e+002 1.997719467827e+002 1.993239665793e+002 1.993791906431e+002 1.994991317907e+002 1.978704983397e+002 1.995967496406e+002 1.975728454338e+002 1.986566293650e+002 1.988745309776e+002 1.990675897726e+002 1.997550808355e+002 1.970732331013e+002 1.997094831001e+002 1.968240332941e+002 1.984205105013e+002 1.997898363970e+002 1.997896234932e+002 1.997686786309e+002 1.984579385551e+002 1.978225575524e+002 1.983113399478e+002 1.979875405833e+002 1.965373690733e+002 1.969429010223e+002 1.965019104994e+002 1.966310153422e+002 1.969436107919e+002 1.991673166438e+002 1.989890956447e+002 1.987854817047e+002 1.985572967503e+002 1.996746030492e+002 1.972543911914e+002 1.997312539744e+002 1.992364093951e+002 1.994513721269e+002 1.996737325186e+002 1.995592010203e+002 1.997306249093e+002 1.996442991091e+002 1.991701441125e+002 1.989890217848e+002 1.987877429788e+002 1.985598093432e+002 1.972588546318e+002 1.977012005202e+002 1.973902648691e+002 1.973901416468e+002 1.996442908324e+002 1.976981414083e+002 1.995591792960e+002 1.994525220959e+002 1.992363856470e+002 1.997934612799e+002 1.997935124160e+002 1.979248716141e+002 1.977981823876e+002 1.997902256868e+002 1.965797702763e+002 1.997831265144e+002 1.997836097938e+002 1.964737573366e+002 1.997885122692e+002 1.964865512055e+002 1.966167891315e+002 1.979771136836e+002 1.983227767182e+002 1.969693789119e+002 1.965286304320e+002 1.979492927407e+002 1.968034836867e+002 1.967953093660e+002 1.983487869630e+002 1.966739316037e+002 1.980515219460e+002 1.982103760956e+002 1.966405455798e+002 1.975593336493e+002 1.993859810998e+002 1.995039128168e+002 1.996005717328e+002 1.997079877275e+002 1.997544314948e+002 1.993163376069e+002 1.984250754526e+002 1.986657942770e+002 1.988827185733e+002 1.990747749308e+002 1.980941319090e+002 1.968034806427e+002 1.982183972497e+002 1.980832959346e+002 1.997697375140e+002 1.997878636571e+002 1.970859908001e+002 1.978507889940e+002 1.965077342741e+002 1.966841069160e+002 1.997911461516e+002 1.966608058032e+002 1.991908000769e+002 1.990157130741e+002 1.988156136627e+002 1.985908310513e+002 1.993611247060e+002 1.993425832232e+002 1.992162730473e+002 1.994853474118e+002 1.995856908615e+002 1.979094188130e+002 1.996648780820e+002 1.976111661589e+002 1.997242568550e+002 1.972997518875e+002 1.997599590121e+002 1.997240078550e+002 1.996650381482e+002 1.995860848070e+002 1.994858356761e+002 1.972994676791e+002 1.976098926774e+002 1.985920676500e+002 1.988153749102e+002 1.990155029444e+002 1.997598422551e+002 1.970297157676e+002 1.983845395455e+002 1.997628545426e+002 1.997844494164e+002 1.997844517532e+002 1.970514799698e+002 1.969317266556e+002 1.964737173753e+002 1.981960408545e+002 1.997469543860e+002 1.996970386662e+002 1.996151395092e+002 1.995222011049e+002 1.994056104761e+002 1.971403932253e+002 1.975058163685e+002 1.978089873446e+002 1.991069919473e+002 1.987070435144e+002 1.984706598134e+002 1.989160548512e+002 1.992942579157e+002 1.997745116057e+002 1.997919430500e+002 1.997919440893e+002 1.997190519727e+002 1.995807174324e+002 1.994791680305e+002 1.976280935860e+002 1.986149766119e+002 1.988372695802e+002 1.990348096074e+002 1.968976314524e+002 1.981116063679e+002 1.993555446398e+002 1.993483759584e+002 1.983696673419e+002 1.997938583722e+002 1.985446413749e+002 1.978804049787e+002 1.984091790878e+002 1.994164935088e+002 1.995298110510e+002 1.996211735171e+002 1.997436682843e+002 1.996922947928e+002 1.977870398333e+002 1.974828124819e+002 1.971654118949e+002 1.989343613225e+002 1.991199974315e+002 1.984888499934e+002 1.987237653929e+002 1.997436644121e+002 1.996922758987e+002 1.987237544631e+002 1.989348422348e+002 1.996215992841e+002 1.991202133805e+002 1.995303506161e+002 1.994173207157e+002 1.974813300061e+002 1.992815035190e+002 1.992807131797e+002 1.967749224619e+002 1.979882913409e+002 1.967583730237e+002 1.984387471184e+002 1.981633372552e+002 1.997811913775e+002 1.997808917781e+002 1.982682903117e+002 1.982897450197e+002 1.981813283020e+002 1.993698620827e+002 1.991818361686e+002 1.992246174989e+002 1.993335523862e+002 1.990547931540e+002 1.988599739737e+002 1.986403397602e+002 1.994613284223e+002 1.973667383179e+002 1.976754685588e+002 1.997138111598e+002 1.996498539872e+002 1.995663145528e+002 1.997133126171e+002 1.973664289779e+002 1.996498574484e+002 1.976754081597e+002 1.986403441620e+002 1.988599781585e+002 1.990511693732e+002 1.995663171623e+002 1.994613299559e+002 1.970265691282e+002 1.965160972134e+002 1.997921509735e+002 1.969795808675e+002 1.992042772464e+002 1.992025971298e+002 1.973234730135e+002 1.973229321161e+002 1.996597926257e+002 1.996597083762e+002 1.997892416959e+002 1.966729539574e+002 1.964956529570e+002 1.970324452359e+002 1.967230230428e+002 1.997938908450e+002 1.986562437961e+002 1.997939114546e+002 1.985607798623e+002 1.966007722491e+002 1.997665900508e+002 1.997666738945e+002 1.994761288499e+002 1.995782716564e+002 1.976362505594e+002 1.990291449606e+002 1.986078015930e+002 1.988308352927e+002 1.997203809270e+002 1.968774226373e+002 1.968860240744e+002 1.965064713881e+002 1.983300386043e+002 1.979686879485e+002 1.965113344207e+002 1.969637381657e+002 1.971765479738e+002 1.980428363208e+002 1.969203724683e+002 1.997760594725e+002 1.997760600197e+002 1.980128752858e+002 1.983020263463e+002 1.997713908138e+002 1.979009494200e+002 1.983087893838e+002 1.982648401004e+002 1.997033363426e+002 1.971036413849e+002 1.997514657550e+002 1.986569582872e+002 1.988742936484e+002 1.990678471429e+002 1.993251765141e+002 1.975429094194e+002 1.996050854890e+002 1.978440241760e+002 1.995095672379e+002 1.993777681274e+002 1.997623679035e+002 1.967966860134e+002 1.982151568550e+002 1.981220132904e+002 1.979308628565e+002 1.966035024013e+002 1.997939436753e+002 1.987520369084e+002 1.997939449139e+002 1.988594933060e+002 1.964992843801e+002 1.970069382696e+002 1.981474640041e+002 1.980440945006e+002 1.997894163521e+002 1.977703326005e+002 1.984990398974e+002 1.968819479758e+002 1.983351101709e+002 1.966890827414e+002 1.994396102883e+002 1.995486831743e+002 1.996360585442e+002 1.977306950902e+002 1.974240190700e+002 1.996450876274e+002 1.997301723678e+002 1.995602117712e+002 1.996731279910e+002 1.994538047189e+002 1.973868937197e+002 1.976948997043e+002 1.972619554971e+002 1.985619942085e+002 1.989931582177e+002 1.987896440718e+002 1.991712295041e+002 1.997347164842e+002 1.996795025720e+002 1.972304124468e+002 1.992530686572e+002 1.985336820264e+002 1.987642172742e+002 1.989702596865e+002 1.991513021184e+002 1.992350197467e+002 1.992807178832e+002 1.991199783688e+002 1.987237505855e+002 1.989343591777e+002 1.984888414225e+002 1.997436712717e+002 1.996922774143e+002 1.996217669874e+002 1.994171604546e+002 1.995305615765e+002 1.971662023197e+002 1.974806235375e+002 1.977854368108e+002 1.979647810515e+002 1.969493552084e+002 1.997891061712e+002 1.965017962432e+002 1.992323815479e+002 1.991736743043e+002 1.989955467273e+002 1.987927848565e+002 1.985654181813e+002 1.996716392292e+002 1.997291564771e+002 1.972684808956e+002 1.996461810800e+002 1.995613411220e+002 1.994550408497e+002 1.973821373050e+002 1.976916697486e+002 1.981402236790e+002 1.997765184158e+002 1.981085546124e+002 1.997790822031e+002 1.992778893931e+002 1.992825463995e+002 1.991253096792e+002 1.989403574783e+002 1.987306168003e+002 1.984964389884e+002 1.997428668981e+002 1.996911183136e+002 1.996194694736e+002 1.995276610870e+002 1.994195137834e+002 1.974894872266e+002 1.994156241562e+002 1.987279878850e+002 1.989305936596e+002 1.991232729748e+002 1.995294023444e+002 1.996208490997e+002 1.977882156478e+002 1.996923827233e+002 1.974840547815e+002 1.997437423016e+002 1.971648842530e+002 1.967310185411e+002 1.996849358096e+002 1.972034906372e+002 1.997385492063e+002 1.987484480606e+002 1.991391236061e+002 1.989577702851e+002 1.985161896609e+002 1.974472986018e+002 1.996302648417e+002 1.977529870955e+002 1.995413237372e+002 1.994302408198e+002 1.992648156015e+002 1.964721725747e+002 1.997939182228e+002 1.986817252973e+002 1.997827030763e+002 1.997875169595e+002 1.997875146400e+002 1.980996718318e+002 1.982065106445e+002 1.968678877808e+002 1.971725812165e+002 1.997689003189e+002 1.964595376995e+002 1.997760391973e+002 1.997759390759e+002 1.969924305942e+002 1.993770843096e+002 1.994976564347e+002 1.978754695273e+002 1.995955686985e+002 1.975770348635e+002 1.990696887679e+002 1.988745561308e+002 1.986593109813e+002 1.993248462640e+002 1.997558360360e+002 1.970622787279e+002 1.997102319098e+002 1.979293477151e+002 1.983664703931e+002 1.980731256202e+002 1.965904421230e+002 1.964996348806e+002 1.997929789253e+002 1.974390566336e+002 1.997929785428e+002 1.973721176778e+002 1.985014206345e+002 1.977715251927e+002 1.984087418291e+002 1.966332318042e+002 1.997578507572e+002 1.969733189362e+002 1.980212621054e+002 1.982470602895e+002 1.980665720642e+002 1.968540345097e+002 1.965905094130e+002 1.967418510267e+002 1.978339020144e+002 1.965888381109e+002 1.967920359210e+002 1.980912361053e+002 1.964626482108e+002 1.965416140502e+002 1.981758311391e+002 1.979981785370e+002 1.982551322084e+002 1.980382990461e+002 1.997856186605e+002 1.965756582503e+002 1.970917038544e+002 1.992968510148e+002 1.993324377313e+002 1.997577046045e+002 1.997131145253e+002 1.997487509004e+002 1.996992798596e+002 1.995958771238e+002 1.994980393600e+002 1.975760695848e+002 1.994033776098e+002 1.993709336348e+002 1.984552812596e+002 1.984038492768e+002 1.986937820720e+002 1.986427059055e+002 1.988620903025e+002 1.989077183247e+002 1.990965625562e+002 1.990565772484e+002 1.967420149974e+002 1.997914531600e+002 1.997914288646e+002 1.997928729623e+002 1.997928736041e+002 1.970719132068e+002 1.997924837167e+002 1.991563736837e+002 1.989760809422e+002 1.987707839171e+002 1.985409669356e+002 1.992484360589e+002 1.993118502667e+002 1.993900367156e+002 1.995080904061e+002 1.978485368812e+002 1.996039089852e+002 1.975472059901e+002 1.996788561738e+002 1.972335439197e+002 1.997342637087e+002 1.997342511861e+002 1.996788375815e+002 1.997522904110e+002 1.996038334191e+002 1.995079958927e+0