<?xml version="1.0"?>
<VTKFile type="UnstructuredGrid" version="0.1" byte_order="LittleEndian">
  <UnstructuredGrid>
    <Piece NumberOfPoints="2604" NumberOfCells="4910">
      <Points>
        <DataArray type="Float64" NumberOfComponents="3" format="ascii">
          0.000000000000e+000 0.000000000000e+000 0.000000000000e+000
          2.000000000000e+002 0.000000000000e+000 0.000000000000e+000
          2.000000000000e+002 2.000000000000e+001 0.000000000000e+000
          0.000000000000e+000 2.000000000000e+001 0.000000000000e+000
          1.492537313427e+000 0.000000000000e+000 0.000000000000e+000
          2.985074626854e+000 0.000000000000e+000 0.000000000000e+000
          4.477611940281e+000 0.000000000000e+000 0.000000000000e+000
          5.970149253708e+000 0.000000000000e+000 0.000000000000e+000
          7.462686567135e+000 0.000000000000e+000 0.000000000000e+000
          8.955223880561e+000 0.000000000000e+000 0.000000000000e+000
          1.044776119399e+001 0.000000000000e+000 0.000000000000e+000
          1.194029850741e+001 0.000000000000e+000 0.000000000000e+000
          1.343283582084e+001 0.000000000000e+000 0.000000000000e+000
          1.492537313427e+001 0.000000000000e+000 0.000000000000e+000
          1.641791044770e+001 0.000000000000e+000 0.000000000000e+000
          1.791044776112e+001 0.000000000000e+000 0.000000000000e+000
          1.940298507455e+001 0.000000000000e+000 0.000000000000e+000
          2.089552238798e+001 0.000000000000e+000 0.000000000000e+000
          2.238805970141e+001 0.000000000000e+000 0.000000000000e+000
          2.388059701484e+001 0.000000000000e+000 0.000000000000e+000
          2.537313432826e+001 0.000000000000e+000 0.000000000000e+000
          2.686567164169e+001 0.000000000000e+000 0.000000000000e+000
          2.835820895511e+001 0.000000000000e+000 0.000000000000e+000
          2.985074626854e+001 0.000000000000e+000 0.000000000000e+000
          3.134328358196e+001 0.000000000000e+000 0.000000000000e+000
          3.283582089539e+001 0.000000000000e+000 0.000000000000e+000
          3.432835820881e+001 0.000000000000e+000 0.000000000000e+000
          3.582089552224e+001 0.000000000000e+000 0.000000000000e+000
          3.731343283566e+001 0.000000000000e+000 0.000000000000e+000
          3.880597014909e+001 0.000000000000e+000 0.000000000000e+000
          4.029850746251e+001 0.000000000000e+000 0.000000000000e+000
          4.179104477594e+001 0.000000000000e+000 0.000000000000e+000
          4.328358208936e+001 0.000000000000e+000 0.000000000000e+000
          4.477611940279e+001 0.000000000000e+000 0.000000000000e+000
          4.626865671621e+001 0.000000000000e+000 0.000000000000e+000
          4.776119402964e+001 0.000000000000e+000 0.000000000000e+000
          4.925373134306e+001 0.000000000000e+000 0.000000000000e+000
          5.074626865649e+001 0.000000000000e+000 0.000000000000e+000
          5.223880596991e+001 0.000000000000e+000 0.000000000000e+000
          5.373134328334e+001 0.000000000000e+000 0.000000000000e+000
          5.522388059676e+001 0.000000000000e+000 0.000000000000e+000
          5.671641791019e+001 0.000000000000e+000 0.000000000000e+000
          5.820895522361e+001 0.000000000000e+000 0.000000000000e+000
          5.970149253704e+001 0.000000000000e+000 0.000000000000e+000
          6.119402985046e+001 0.000000000000e+000 0.000000000000e+000
          6.268656716389e+001 0.000000000000e+000 0.000000000000e+000
          6.417910447732e+001 0.000000000000e+000 0.000000000000e+000
          6.567164179075e+001 0.000000000000e+000 0.000000000000e+000
          6.716417910418e+001 0.000000000000e+000 0.000000000000e+000
          6.865671641761e+001 0.000000000000e+000 0.000000000000e+000
          7.014925373104e+001 0.000000000000e+000 0.000000000000e+000
          7.164179104447e+001 0.000000000000e+000 0.000000000000e+000
          7.313432835790e+001 0.000000000000e+000 0.000000000000e+000
          7.462686567133e+001 0.000000000000e+000 0.000000000000e+000
          7.611940298476e+001 0.000000000000e+000 0.000000000000e+000
          7.761194029819e+001 0.000000000000e+000 0.000000000000e+000
          7.910447761162e+001 0.000000000000e+000 0.000000000000e+000
          8.059701492505e+001 0.000000000000e+000 0.000000000000e+000
          8.208955223848e+001 0.000000000000e+000 0.000000000000e+000
          8.358208955191e+001 0.000000000000e+000 0.000000000000e+000
          8.507462686534e+001 0.000000000000e+000 0.000000000000e+000
          8.656716417877e+001 0.000000000000e+000 0.000000000000e+000
          8.805970149220e+001 0.000000000000e+000 0.000000000000e+000
          8.955223880563e+001 0.000000000000e+000 0.000000000000e+000
          9.104477611907e+001 0.000000000000e+000 0.000000000000e+000
          9.253731343250e+001 0.000000000000e+000 0.000000000000e+000
          9.402985074593e+001 0.000000000000e+000 0.000000000000e+000
          9.552238805936e+001 0.000000000000e+000 0.000000000000e+000
          9.701492537279e+001 0.000000000000e+000 0.000000000000e+000
          9.850746268622e+001 0.000000000000e+000 0.000000000000e+000
          9.999999999965e+001 0.000000000000e+000 0.000000000000e+000
          1.014925373131e+002 0.000000000000e+000 0.000000000000e+000
          1.029850746265e+002 0.000000000000e+000 0.000000000000e+000
          1.044776119399e+002 0.000000000000e+000 0.000000000000e+000
          1.059701492534e+002 0.000000000000e+000 0.000000000000e+000
          1.074626865668e+002 0.000000000000e+000 0.000000000000e+000
          1.089552238802e+002 0.000000000000e+000 0.000000000000e+000
          1.104477611937e+002 0.000000000000e+000 0.000000000000e+000
          1.119402985071e+002 0.000000000000e+000 0.000000000000e+000
          1.134328358205e+002 0.000000000000e+000 0.000000000000e+000
          1.149253731340e+002 0.000000000000e+000 0.000000000000e+000
          1.164179104474e+002 0.000000000000e+000 0.000000000000e+000
          1.179104477608e+002 0.000000000000e+000 0.000000000000e+000
          1.194029850742e+002 0.000000000000e+000 0.000000000000e+000
          1.208955223877e+002 0.000000000000e+000 0.000000000000e+000
          1.223880597011e+002 0.000000000000e+000 0.000000000000e+000
          1.238805970145e+002 0.000000000000e+000 0.000000000000e+000
          1.253731343280e+002 0.000000000000e+000 0.000000000000e+000
          1.268656716414e+002 0.000000000000e+000 0.000000000000e+000
          1.283582089548e+002 0.000000000000e+000 0.000000000000e+000
          1.298507462683e+002 0.000000000000e+000 0.000000000000e+000
          1.313432835817e+002 0.000000000000e+000 0.000000000000e+000
          1.328358208952e+002 0.000000000000e+000 0.000000000000e+000
          1.343283582086e+002 0.000000000000e+000 0.000000000000e+000
          1.358208955220e+002 0.000000000000e+000 0.000000000000e+000
          1.373134328355e+002 0.000000000000e+000 0.000000000000e+000
          1.388059701489e+002 0.000000000000e+000 0.000000000000e+000
          1.402985074624e+002 0.000000000000e+000 0.000000000000e+000
          1.417910447758e+002 0.000000000000e+000 0.000000000000e+000
          1.432835820892e+002 0.000000000000e+000 0.000000000000e+000
          1.447761194027e+002 0.000000000000e+000 0.000000000000e+000
          1.462686567161e+002 0.000000000000e+000 0.000000000000e+000
          1.477611940296e+002 0.000000000000e+000 0.000000000000e+000
          1.492537313430e+002 0.000000000000e+000 0.000000000000e+000
          1.507462686564e+002 0.000000000000e+000 0.000000000000e+000
          1.522388059699e+002 0.000000000000e+000 0.000000000000e+000
          1.537313432833e+002 0.000000000000e+000 0.000000000000e+000
          1.552238805968e+002 0.000000000000e+000 0.000000000000e+000
          1.567164179102e+002 0.000000000000e+000 0.000000000000e+000
          1.582089552237e+002 0.000000000000e+000 0.000000000000e+000
          1.597014925371e+002 0.000000000000e+000 0.000000000000e+000
          1.611940298505e+002 0.000000000000e+000 0.000000000000e+000
          1.626865671640e+002 0.000000000000e+000 0.000000000000e+000
          1.641791044774e+002 0.000000000000e+000 0.000000000000e+000
          1.656716417909e+002 0.000000000000e+000 0.000000000000e+000
          1.671641791043e+002 0.000000000000e+000 0.000000000000e+000
          1.686567164177e+002 0.000000000000e+000 0.000000000000e+000
          1.701492537312e+002 0.000000000000e+000 0.000000000000e+000
          1.716417910446e+002 0.000000000000e+000 0.000000000000e+000
          1.731343283581e+002 0.000000000000e+000 0.000000000000e+000
          1.746268656715e+002 0.000000000000e+000 0.000000000000e+000
          1.761194029849e+002 0.000000000000e+000 0.000000000000e+000
          1.776119402984e+002 0.000000000000e+000 0.000000000000e+000
          1.791044776118e+002 0.000000000000e+000 0.000000000000e+000
          1.805970149253e+002 0.000000000000e+000 0.000000000000e+000
          1.820895522387e+002 0.000000000000e+000 0.000000000000e+000
          1.835820895521e+002 0.000000000000e+000 0.000000000000e+000
          1.850746268656e+002 0.000000000000e+000 0.000000000000e+000
          1.865671641790e+002 0.000000000000e+000 0.000000000000e+000
          1.880597014925e+002 0.000000000000e+000 0.000000000000e+000
          1.895522388059e+002 0.000000000000e+000 0.000000000000e+000
          1.910447761194e+002 0.000000000000e+000 0.000000000000e+000
          1.925373134328e+002 0.000000000000e+000 0.000000000000e+000
          1.940298507462e+002 0.000000000000e+000 0.000000000000e+000
          1.955223880597e+002 0.000000000000e+000 0.000000000000e+000
          1.970149253731e+002 0.000000000000e+000 0.000000000000e+000
          1.985074626866e+002 0.000000000000e+000 0.000000000000e+000
          2.000000000000e+002 1.428571428570e+000 0.000000000000e+000
          2.000000000000e+002 2.857142857140e+000 0.000000000000e+000
[...]
      <PointData Scalars="MEAN_PRESSURE">
        <DataArray type="Float64" Name="MEAN_PRESSURE" format="ascii">
          2.000000000000e+002 1.991224663267e+002 1.991224648352e+002 2.000000000000e+002 1.994992068294e+002 1.984924691029e+002 1.978122777327e+002 1.973379349860e+002 1.970248003402e+002 1.968339350867e+002 1.967244113292e+002 1.966735039162e+002 1.966597293135e+002 1.966691364303e+002 1.966915134972e+002 1.967209876495e+002 1.967536435209e+002 1.967873485654e+002 1.968210348216e+002 1.968542457222e+002 1.968868830214e+002 1.969189443881e+002 1.969505721453e+002 1.969818742159e+002 1.970129401967e+002 1.970438326214e+002 1.970746013381e+002 1.971052741481e+002 1.971358641373e+002 1.971663803432e+002 1.971968240605e+002 1.972271950476e+002 1.972574867217e+002 1.972876956830e+002 1.973178161186e+002 1.973478411928e+002 1.973777673112e+002 1.974075858290e+002 1.974372931314e+002 1.974668848876e+002 1.974963519266e+002 1.975256868125e+002 1.975548901689e+002 1.975839527798e+002 1.976128715732e+002 1.976416400270e+002 1.976702560747e+002 1.976987055525e+002 1.977269961581e+002 1.977551124912e+002 1.977830518841e+002 1.978108115418e+002 1.978383902703e+002 1.978657685598e+002 1.978929566642e+002 1.979199454106e+002 1.979467324193e+002 1.979733054772e+002 1.979996632718e+002 1.980258131261e+002 1.980517285785e+002 1.980774178851e+002 1.981028755532e+002 1.981281017606e+002 1.981530856093e+002 1.981778249155e+002 1.982023164064e+002 1.982265533622e+002 1.982505364546e+002 1.982742557706e+002 1.982977161921e+002 1.983209030068e+002 1.983438213999e+002 1.983664629210e+002 1.983888239047e+002 1.984109050842e+002 1.984326965914e+002 1.984542038632e+002 1.984754155855e+002 1.984963323385e+002 1.985169452627e+002 1.985372606986e+002 1.985572672148e+002 1.985769679150e+002 1.985963548628e+002 1.986154266459e+002 1.986341825884e+002 1.986526179110e+002 1.986707300248e+002 1.986885169569e+002 1.987059760609e+002 1.987231054056e+002 1.987399026839e+002 1.987563630021e+002 1.987724824642e+002 1.987882663474e+002 1.988037042541e+002 1.988187983685e+002 1.988335470599e+002 1.988479494674e+002 1.988620000243e+002 1.988756950725e+002 1.988890404528e+002 1.989020257251e+002 1.989146536777e+002 1.989269231611e+002 1.989388337977e+002 1.989503802904e+002 1.989615593142e+002 1.989723773400e+002 1.989828239566e+002 1.989929022595e+002 1.990026123364e+002 1.990119550298e+002 1.990209228922e+002 1.990295139217e+002 1.990377357239e+002 1.990455776866e+002 1.990530433143e+002 1.990601326585e+002 1.990668472837e+002 1.990731825501e+002 1.990791345983e+002 1.990847058505e+002 1.990898951000e+002 1.990946988459e+002 1.990991244346e+002 1.991031710721e+002 1.991068279726e+002 1.991101089184e+002 1.991130106103e+002 1.991155078447e+002 1.991176262559e+002 1.991193611881e+002 1.991207323137e+002 1.991216587642e+002 1.991222550774e+002 1.991224456899e+002 1.991224264735e+002 1.991224682065e+002 1.991224598327e+002 1.991224557288e+002 1.991224481982e+002 1.991224432565e+002 1.991224466828e+002 1.991224470781e+002 1.991224376534e+002 1.991224636989e+002 1.991224241062e+002 1.991224440435e+002 1.991222537339e+002 1.991216576970e+002 1.991207313900e+002 1.991193602768e+002 1.991176255523e+002 1.991155083635e+002 1.991130123125e+002 1.991101108617e+002 1.991068297915e+002 1.991031727639e+002 1.990991248435e+002 1.990946995583e+002 1.990898948736e+002 1.990847046183e+002 1.990791336847e+002 1.990731807197e+002 1.990668450017e+002 1.990601375500e+002 1.990530473268e+002 1.990455787049e+002 1.990377354768e+002 1.990295151224e+002 1.990209197128e+002 1.990119544951e+002 1.990026150511e+002 1.989929059208e+002 1.989828239327e+002 1.989723762030e+002 1.989615571812e+002 1.989503790380e+002 1.989388321031e+002 1.989269238122e+002 1.989146549088e+002 1.989020232626e+002 1.988890388572e+002 1.988756935040e+002 1.988619995920e+002 1.988479484942e+002 1.988335479913e+002 1.988187994057e+002 1.988037016052e+002 1.987882648338e+002 1.987724814291e+002 1.987563631631e+002 1.987399024511e+002 1.987231033860e+002 1.987059769619e+002 1.986885175917e+002 1.986707303318e+002 1.986526179184e+002 1.986341835517e+002 1.986154299777e+002 1.985963575729e+002 1.985769677367e+002 1.985572703841e+002 1.985372608808e+002 1.985169459517e+002 1.984963294923e+002 1.984754166968e+002 1.984542035907e+002 1.984326997793e+002 1.984109063692e+002 1.983888248984e+002 1.983664611109e+002 1.983438195156e+002 1.983209040818e+002 1.982977151380e+002 1.982742578532e+002 1.982505353456e+002 1.982265532716e+002 1.982023143633e+002 1.981778237014e+002 1.981530858824e+002 1.981281021186e+002 1.981028779313e+002 1.980774169608e+002 1.980517250947e+002 1.980258055796e+002 1.979996636322e+002 1.979733049762e+002 1.979467311252e+002 1.979199475558e+002 1.978929581694e+002 1.978657692943e+002 1.978383844319e+002 1.978108098054e+002 1.977830499289e+002 1.977551057230e+002 1.977269908794e+002 1.976987044496e+002 1.976702502792e+002 1.976416375136e+002 1.976128650451e+002 1.975839427066e+002 1.975548769931e+002 1.975256695785e+002 1.974963270471e+002 1.974668553791e+002 1.974372584922e+002 1.974075410758e+002 1.973777108247e+002 1.973477699844e+002 1.973177250051e+002 1.972875807925e+002 1.972573420710e+002 1.972270116279e+002 1.971965924039e+002 1.971660873160e+002 1.971354925382e+002 1.971048036537e+002 1.970740081889e+002 1.970430842069e+002 1.970119927437e+002 1.969806764376e+002 1.969490531744e+002 1.969170129095e+002 1.968844290130e+002 1.968511637443e+002 1.968171682448e+002 1.967824818746e+002 1.967475548631e+002 1.967134160355e+002 1.966821643259e+002 1.966573718822e+002 1.966458633379e+002 1.966573585846e+002 1.967065350215e+002 1.968111141971e+002 1.970040789337e+002 1.973193884029e+002 1.977918938510e+002 1.984791951938e+002 1.994822077003e+002 2.000000000000e+002 2.000000000000e+002 2.000000000000e+002 2.000000000000e+002 2.000000000000e+002 2.000000000000e+002 2.000000000000e+002 2.000000000000e+002 2.000000000000e+002 2.000000000000e+002 2.000000000000e+002 2.000000000000e+002 2.000000000000e+002 1.991137717479e+002 1.967452596205e+002 1.990875119713e+002 1.990418522012e+002 1.989769862363e+002 1.988947584610e+002 1.987950545249e+002 1.969339303961e+002 1.986796573072e+002 1.971528696533e+002 1.973646564527e+002 1.975730495834e+002 1.978770675041e+002 1.980645946290e+002 1.982385702182e+002 1.983998933920e+002 1.985472944335e+002 1.967366181268e+002 1.977269946959e+002 1.986154224716e+002 1.986145533076e+002 1.984754161039e+002 1.983209034036e+002 1.981530864406e+002 1.979733064804e+002 1.990678347636e+002 1.990133386769e+002 1.989401999586e+002 1.979733023807e+002 1.981486222400e+002 1.983227629241e+002 1.984716305737e+002 1.988496111777e+002 1.987398961888e+002 1.970421095836e+002 1.972538891341e+002 1.974702026513e+002 1.987406737232e+002 1.988480859397e+002 1.989389451143e+002 1.990119453595e+002 1.990668377224e+002 1.974665590529e+002 1.972570662496e+002 1.970432498711e+002 1.991027667972e+002 1.991025238817e+002 1.976661695539e+002 1.977904952584e+002 1.966602113554e+002 1.968225275082e+002 1.991194183051e+002 1.973312808275e+002 1.991194663612e+002 1.973317640983e+002 1.966574666581e+002 1.968493149667e+002 1.976350958471e+002 1.978147566471e+002 1.990873528787e+002 1.985472970604e+002 1.990416972503e+002 1.983999003572e+002 1.982385770754e+002 1.980645999410e+002 1.978851589228e+002 1.986794855786e+002 1.989778240569e+002 1.988967263757e+002 1.987973976059e+002 1.971505171348e+002 1.973601397276e+002 1.986798295455e+002 1.987960207608e+002 1.988955710540e+002 1.989776400507e+002 1.980645545522e+002 1.982385333827e+002 1.983998575899e+002 1.990416973098e+002 1.985476579389e+002 1.990873465222e+002 1.975694307137e+002 1.973627608005e+002 1.971508468365e+002 1.969333295576e+002 1.991126787293e+002 1.991128593516e+002 1.967025246182e+002 1.969510073412e+002 1.978984771493e+002 1.975471297594e+002 1.991208637392e+002 1.978682513485e+002 1.967400918126e+002 1.967541963976e+002 1.967343464601e+002 1.977107981447e+002 1.976514099997e+002 1.978023491514e+002 1.966552868720e+002 1.968276706419e+002 1.977276309768e+002 1.991057155653e+002 1.989492626738e+002 1.990029480206e+002 1.988606386900e+002 1.990603707880e+002 1.987547517863e+002 1.984928222216e+002 1.981736717390e+002 1.979952384027e+002 1.983415825961e+002 1.970731624648e+002 1.974401634839e+002 1.972300639146e+002 1.985982112805e+002 1.977269924143e+002 1.991214792063e+002 1.983466197822e+002 1.991214791789e+002 1.983199698054e+002 1.985037733211e+002 1.983519893660e+002 1.981866571966e+002 1.980090889297e+002 1.987169689944e+002 1.985886334856e+002 1.986408420046e+002 1.988282706484e+002 1.975068969959e+002 1.989225399782e+002 1.972984428065e+002 1.989991486260e+002 1.970851372804e+002 1.990576131846e+002 1.990573431949e+002 1.990757900080e+002 1.989987737809e+002 1.990242204485e+002 1.989214011088e+002 1.989539999818e+002 1.988268990466e+002 1.988664301853e+002 1.970897711204e+002 1.987614683402e+002 1.987169208450e+002 1.973013642044e+002 1.972174145437e+002 1.980092241188e+002 1.981876554492e+002 1.983538072548e+002 1.981199456480e+002 1.982900357219e+002 1.985028501630e+002 1.984472570816e+002 1.974351553253e+002 1.986408909828e+002 1.985922917718e+002 1.990753640566e+002 1.970008253498e+002 1.990227182994e+002 1.972206193737e+002 1.989527594639e+002 1.974310058746e+002 1.988649083712e+002 1.979327852736e+002 1.981165163934e+002 1.982869468820e+002 1.984439523281e+002 1.987597816105e+002 1.967216833152e+002 1.990973107626e+002 1.990971139073e+002 1.978200302493e+002 1.976289628869e+002 1.968666750889e+002 1.986392466223e+002 1.982907235882e+002 1.984482495142e+002 1.981211125938e+002 1.979333301273e+002 1.970032323151e+002 1.972959080925e+002 1.990749887205e+002 1.975051195429e+002 1.990233037000e+002 1.989235912615e+002 1.987184442793e+002 1.988295356710e+002 1.970121793366e+002 1.991069617130e+002 1.991069610148e+002 1.977711000830e+002 1.966459888923e+002 1.990977280308e+002 1.986542669379e+002 1.987046779257e+002 1.988176562493e+002 1.975262026633e+002 1.989137007802e+002 1.973200545507e+002 1.981009847140e+002 1.982724933428e+002 1.984310815838e+002 1.990792440995e+002 1.969804845669e+002 1.990301562032e+002 1.968049901680e+002 1.979222257332e+002 1.991175371705e+002 1.991173002068e+002 1.990941316831e+002 1.979501372250e+002 1.974926962926e+002 1.978416190862e+002 1.976085919120e+002 1.969957389033e+002 1.968902554295e+002 1.966549550424e+002 1.966772649368e+002 1.968909507553e+002 1.985159761492e+002 1.983657506716e+002 1.982015427464e+002 1.980249817830e+002 1.989934174364e+002 1.971033708085e+002 1.990534371793e+002 1.985761635718e+002 1.987720499929e+002 1.989925075061e+002 1.988762744223e+002 1.990527595896e+002 1.989620281554e+002 1.985184162944e+002 1.983656880489e+002 1.982033303994e+002 1.980268912825e+002 1.971064214203e+002 1.974084194155e+002 1.971954840716e+002 1.971953864643e+002 1.989620207774e+002 1.974063072735e+002 1.988762569148e+002 1.987731450888e+002 1.985761486744e+002 1.991215775017e+002 1.991216345692e+002 1.984350756498e+002 1.983346754032e+002 1.991179707531e+002 1.970520592146e+002 1.991100819446e+002 1.991106180268e+002 1.968465079887e+002 1.991160636177e+002 1.966893852182e+002 1.970904633731e+002 1.976012135956e+002 1.978499998258e+002 1.969089556585e+002 1.966654351253e+002 1.975815734220e+002 1.967896068002e+002 1.967838800528e+002 1.978691326932e+002 1.966998267249e+002 1.976540020933e+002 1.977680537051e+002 1.966791607418e+002 1.973107980271e+002 1.987109360649e+002 1.988222668191e+002 1.989175447707e+002 1.990285663210e+002 1.990785358498e+002 1.986473715342e+002 1.979256193633e+002 1.981080604087e+002 1.982790804692e+002 1.984371245501e+002 1.976844103127e+002 1.967897262760e+002 1.977738646032e+002 1.976766594269e+002 1.990952960021e+002 1.991153422612e+002 1.969892648440e+002 1.975124142239e+002 1.968951907598e+002 1.972207894840e+002 1.991189960482e+002 1.966914573273e+002 1.985363043603e+002 1.983877711015e+002 1.982254128269e+002 1.980505059520e+002 1.986880832348e+002 1.986711577891e+002 1.985585059292e+002 1.988044098405e+002 1.989026155688e+002 1.975535066678e+002 1.989832945237e+002 1.973463608320e+002 1.990459255064e+002 1.971340655306e+002 1.990845717409e+002 1.990456581280e+002 1.989834602327e+002 1.989030099723e+002 1.988048790566e+002 1.971339276936e+002 1.973454961904e+002 1.980514480602e+002 1.982252224915e+002 1.983875960504e+002 1.990844441549e+002 1.969505967848e+002 1.978955349045e+002 1.990877408248e+002 1.991115496089e+002 1.991115521619e+002 1.969657412543e+002 1.968824328146e+002 1.966760232894e+002 1.977576821430e+002 1.990704034177e+002 1.990169717574e+002 1.989322642395e+002 1.988399966252e+002 1.987291339270e+002 1.970261902415e+002 1.972741829188e+002 1.974832336958e+002 1.984643577511e+002 1.981400491972e+002 1.979596569420e+002 1.983060213158e+002 1.986275271219e+002 1.991005546747e+002 1.991198841969e+002 1.991198853671e+002 1.990403547864e+002 1.988976459553e+002 1.987984914402e+002 1.973580056631e+002 1.980689639314e+002 1.982426500778e+002 1.984036486363e+002 1.974782991724e+002 1.976969168415e+002 1.986829754927e+002 1.986764322424e+002 1.978845352668e+002 1.991220206587e+002 1.989299828969e+002 1.975331445564e+002 1.979137988221e+002 1.987392772700e+002 1.988474130226e+002 1.989383899713e+002 1.990668401769e+002 1.990119688825e+002 1.974679513119e+002 1.972584705173e+002 1.970431052843e+002 1.983209020702e+002 1.984754151727e+002 1.979733025805e+002 1.981530840879e+002 1.990668362053e+002 1.990119487369e+002 1.981530788022e+002 1.983212978177e+002 1.989388232731e+002 1.984756039037e+002 1.988479401773e+002 1.987400505671e+002 1.972574799548e+002 1.986161260769e+002 1.986154216176e+002 1.967687791399e+002 1.976091243114e+002 1.967572549109e+002 1.979358107686e+002 1.977340774996e+002 1.991079377799e+002 1.991076060333e+002 1.978101419152e+002 1.978258088282e+002 1.977470501256e+002 1.986960939130e+002 1.985285268974e+002 1.985658105429e+002 1.986629499509e+002 1.984203461914e+002 1.982608066555e+002 1.980884352115e+002 1.987814922730e+002 1.971795232654e+002 1.973906514577e+002 1.990347634293e+002 1.989677482021e+002 1.988833198313e+002 1.990342314388e+002 1.971792738043e+002 1.989677513635e+002 1.973906029724e+002 1.980884372298e+002 1.982608087269e+002 1.984173140544e+002 1.988833219967e+002 1.987814933633e+002 1.976016955030e+002 1.966495370520e+002 1.991201160558e+002 1.975582856242e+002 1.985480288496e+002 1.985465649600e+002 1.971501727299e+002 1.971497869189e+002 1.989780191864e+002 1.989779315950e+002 1.991168752652e+002 1.966984181194e+002 1.968248939272e+002 1.969526142175e+002 1.967315186027e+002 1.991220569068e+002 1.990230196539e+002 1.991220798972e+002 1.989539700691e+002 1.966638576604e+002 1.990918375569e+002 1.990919296533e+002 1.987955878145e+002 1.988952067192e+002 1.973636162832e+002 1.983989295270e+002 1.980634702943e+002 1.982375206552e+002 1.990417760720e+002 1.968435617352e+002 1.968499957920e+002 1.966637090188e+002 1.978553397108e+002 1.975952623103e+002 1.966721631906e+002 1.969048146184e+002 1.970507589054e+002 1.976478239109e+002 1.968742795569e+002 1.991022627225e+002 1.991022632856e+002 1.976265388869e+002 1.978347940496e+002 1.990971156001e+002 1.975475572485e+002 1.978397503862e+002 1.978076262929e+002 1.990236341336e+002 1.970011861963e+002 1.990753066420e+002 1.981012394298e+002 1.982723020322e+002 1.984312987835e+002 1.986553620778e+002 1.972995452980e+002 1.989220973536e+002 1.975076845109e+002 1.988277381702e+002 1.987033660661e+002 1.990872081964e+002 1.967848474523e+002 1.977715177935e+002 1.977043759309e+002 1.975685895184e+002 1.966628165344e+002 1.991221158582e+002 1.990934274893e+002 1.991221172570e+002 1.991698993681e+002 1.969138402717e+002 1.969349520912e+002 1.977226538180e+002 1.976487170946e+002 1.991170696844e+002 1.974563371088e+002 1.979809634531e+002 1.968469624225e+002 1.978590712793e+002 1.967098945585e+002 1.987609579780e+002 1.988659085769e+002 1.989535771305e+002 1.974288365573e+002 1.972184169496e+002 1.989628418619e+002 1.990522745396e+002 1.988772782971e+002 1.989918793921e+002 1.987743581346e+002 1.971932021814e+002 1.974040708118e+002 1.971085300698e+002 1.980285482681e+002 1.983691049254e+002 1.982048303297e+002 1.985193531370e+002 1.990571671722e+002 1.989985400422e+002 1.970871319268e+002 1.985908710472e+002 1.980070969589e+002 1.981847893381e+002 1.983502612776e+002 1.985021971288e+002 1.985749477124e+002 1.986154246001e+002 1.984754040994e+002 1.981530768746e+002 1.983209010031e+002 1.979732987414e+002 1.990668431719e+002 1.990119501403e+002 1.989389938887e+002 1.987398991413e+002 1.988481462932e+002 1.970437152296e+002 1.972569903857e+002 1.974668356186e+002 1.975925081057e+002 1.968949497558e+002 1.991167244806e+002 1.969091898305e+002 1.985726291656e+002 1.985214657403e+002 1.983710772953e+002 1.982073160095e+002 1.980311513806e+002 1.989903282349e+002 1.990511830407e+002 1.971129155043e+002 1.989639684170e+002 1.988783964432e+002 1.987755316528e+002 1.971899624042e+002 1.974018383549e+002 1.977174501969e+002 1.991027697437e+002 1.976947332990e+002 1.991056034400e+002 1.986129046743e+002 1.986170554383e+002 1.984799471202e+002 1.983257924144e+002 1.981584400721e+002 1.979790086571e+002 1.990659721175e+002 1.990107298093e+002 1.989366582448e+002 1.988453151992e+002 1.987420997278e+002 1.972630435218e+002 1.987384645363e+002 1.981563828107e+002 1.983178359614e+002 1.984782075917e+002 1.988470149791e+002 1.989380608332e+002 1.974687706409e+002 1.990120621045e+002 1.972593207173e+002 1.990669206709e+002 1.970427566992e+002 1.967375924659e+002 1.990042324340e+002 1.970689269570e+002 1.990613025512e+002 1.981724014646e+002 1.984917510477e+002 1.983400161472e+002 1.979938839644e+002 1.972342702645e+002 1.989476544057e+002 1.974442950433e+002 1.988586800758e+002 1.987521487013e+002 1.986012784504e+002 1.967700760590e+002 1.991220874559e+002 1.990366886587e+002 1.991096126630e+002 1.991149567850e+002 1.991149542379e+002 1.976883740038e+002 1.977652572729e+002 1.968365655379e+002 1.970480642224e+002 1.990943758360e+002 1.967808386490e+002 1.991022405956e+002 1.991021300349e+002 1.969250594593e+002 1.987027360665e+002 1.988162339619e+002 1.975296841439e+002 1.989125136276e+002 1.973229284172e+002 1.984328502485e+002 1.982725168224e+002 1.981030582795e+002 1.986550649803e+002 1.990800680715e+002 1.969730369301e+002 1.990309523886e+002 1.975675177777e+002 1.978821703300e+002 1.976694006587e+002 1.966633227343e+002 1.966907189908e+002 1.991210393697e+002 1.980133947616e+002 1.991210389558e+002 1.979603700627e+002 1.979827511005e+002 1.974571658746e+002 1.979134728970e+002 1.966783770107e+002 1.990822675504e+002 1.975477844955e+002 1.976324928322e+002 1.977946785402e+002 1.976647273837e+002 1.968265369732e+002 1.966568739319e+002 1.967451153546e+002 1.975006140078e+002 1.966559526436e+002 1.967815554947e+002 1.976823416238e+002 1.967049753043e+002 1.966557844085e+002 1.977430856710e+002 1.976161255093e+002 1.978005499383e+002 1.976445929054e+002 1.991128474439e+002 1.970317254988e+002 1.969931909259e+002 1.986298480991e+002 1.986619376574e+002 1.990821076264e+002 1.990340202098e+002 1.990723535424e+002 1.990193384987e+002 1.989128204598e+002 1.988165987351e+002 1.973222687536e+002 1.987270550635e+002 1.986970772518e+002 1.979481517444e+002 1.979098453995e+002 1.981297432486e+002 1.980902549929e+002 1.982625024477e+002 1.982992713139e+002 1.984555206175e+002 1.984218397974e+002 1.972992119386e+002 1.991193381213e+002 1.991193111080e+002 1.991209211484e+002 1.991209218798e+002 1.976660347922e+002 1.991204870320e+002 1.985065492306e+002 1.983550364033e+002 1.981899506261e+002 1.980126025587e+002 1.985867720194e+002 1.986433294237e+002 1.987146880050e+002 1.988263063855e+002 1.975108359237e+002 1.989209085777e+002 1.973024820048e+002 1.989978623697e+002 1.970892375766e+002 1.990566783763e+002 1.990566646499e+002 1.989978424559e+002 1.990762037998e+002 1.989208325222e+002 1.988262152823e+0