<?xml version="1.0"?>
<VTKFile type="UnstructuredGrid" version="0.1" byte_order="LittleEndian">
  <UnstructuredGrid>
    <Piece NumberOfPoints="2604" NumberOfCells="4910">
      <Points>
        <DataArray type="Float64" NumberOfComponents="3" format="ascii">
          0.000000000000e+000 0.000000000000e+000 0.000000000000e+000
          2.000000000000e+002 0.000000000000e+000 0.000000000000e+000
          2.000000000000e+002 2.000000000000e+001 0.000000000000e+000
          0.000000000000e+000 2.000000000000e+001 0.000000000000e+000
          1.492537313427e+000 0.000000000000e+000 0.000000000000e+000
          2.985074626854e+000 0.000000000000e+000 0.000000000000e+000
          4.477611940281e+000 0.000000000000e+000 0.000000000000e+000
          5.970149253708e+000 0.000000000000e+000 0.000000000000e+000
          7.462686567135e+000 0.000000000000e+000 0.000000000000e+000
          8.955223880561e+000 0.000000000000e+000 0.000000000000e+000
          1.044776119399e+001 0.000000000000e+000 0.000000000000e+000
          1.194029850741e+001 0.000000000000e+000 0.000000000000e+000
          1.343283582084e+001 0.000000000000e+000 0.000000000000e+000
          1.492537313427e+001 0.000000000000e+000 0.000000000000e+000
          1.641791044770e+001 0.000000000000e+000 0.000000000000e+000
          1.791044776112e+001 0.000000000000e+000 0.000000000000e+000
          1.940298507455e+001 0.000000000000e+000 0.000000000000e+000
          2.089552238798e+001 0.000000000000e+000 0.000000000000e+000
          2.238805970141e+001 0.000000000000e+000 0.000000000000e+000
          2.388059701484e+001 0.000000000000e+000 0.000000000000e+000
          2.537313432826e+001 0.000000000000e+000 0.000000000000e+000
          2.686567164169e+001 0.000000000000e+000 0.000000000000e+000
          2.835820895511e+001 0.000000000000e+000 0.000000000000e+000
          2.985074626854e+001 0.000000000000e+000 0.000000000000e+000
          3.134328358196e+001 0.000000000000e+000 0.000000000000e+000
          3.283582089539e+001 0.000000000000e+000 0.000000000000e+000
          3.432835820881e+001 0.000000000000e+000 0.000000000000e+000
          3.582089552224e+001 0.000000000000e+000 0.000000000000e+000
          3.731343283566e+001 0.000000000000e+000 0.000000000000e+000
          3.880597014909e+001 0.000000000000e+000 0.000000000000e+000
          4.029850746251e+001 0.000000000000e+000 0.000000000000e+000
          4.179104477594e+001 0.000000000000e+000 0.000000000000e+000
          4.328358208936e+001 0.000000000000e+000 0.000000000000e+000
          4.477611940279e+001 0.000000000000e+000 0.000000000000e+000
          4.626865671621e+001 0.000000000000e+000 0.000000000000e+000
          4.776119402964e+001 0.000000000000e+000 0.000000000000e+000
          4.925373134306e+001 0.000000000000e+000 0.000000000000e+000
          5.074626865649e+001 0.000000000000e+000 0.000000000000e+000
          5.223880596991e+001 0.000000000000e+000 0.000000000000e+000
          5.373134328334e+001 0.000000000000e+000 0.000000000000e+000
          5.522388059676e+001 0.000000000000e+000 0.000000000000e+000
          5.671641791019e+001 0.000000000000e+000 0.000000000000e+000
          5.820895522361e+001 0.000000000000e+000 0.000000000000e+000
          5.970149253704e+001 0.000000000000e+000 0.000000000000e+000
          6.119402985046e+001 0.000000000000e+000 0.000000000000e+000
          6.268656716389e+001 0.000000000000e+000 0.000000000000e+000
          6.417910447732e+001 0.000000000000e+000 0.000000000000e+000
          6.567164179075e+001 0.000000000000e+000 0.000000000000e+000
          6.716417910418e+001 0.000000000000e+000 0.000000000000e+000
          6.865671641761e+001 0.000000000000e+000 0.000000000000e+000
          7.014925373104e+001 0.000000000000e+000 0.000000000000e+000
          7.164179104447e+001 0.000000000000e+000 0.000000000000e+000
          7.313432835790e+001 0.000000000000e+000 0.000000000000e+000
          7.462686567133e+001 0.000000000000e+000 0.000000000000e+000
          7.611940298476e+001 0.000000000000e+000 0.000000000000e+000
          7.761194029819e+001 0.000000000000e+000 0.000000000000e+000
          7.910447761162e+001 0.000000000000e+000 0.000000000000e+000
          8.059701492505e+001 0.000000000000e+000 0.000000000000e+000
          8.208955223848e+001 0.000000000000e+000 0.000000000000e+000
          8.358208955191e+001 0.000000000000e+000 0.000000000000e+000
          8.507462686534e+001 0.000000000000e+000 0.000000000000e+000
          8.656716417877e+001 0.000000000000e+000 0.000000000000e+000
          8.805970149220e+001 0.000000000000e+000 0.000000000000e+000
          8.955223880563e+001 0.000000000000e+000 0.000000000000e+000
          9.104477611907e+001 0.000000000000e+000 0.000000000000e+000
          9.253731343250e+001 0.000000000000e+000 0.000000000000e+000
          9.402985074593e+001 0.000000000000e+000 0.000000000000e+000
          9.552238805936e+001 0.000000000000e+000 0.000000000000e+000
          9.701492537279e+001 0.000000000000e+000 0.000000000000e+000
          9.850746268622e+001 0.000000000000e+000 0.000000000000e+000
          9.999999999965e+001 0.000000000000e+000 0.000000000000e+000
          1.014925373131e+002 0.000000000000e+000 0.000000000000e+000
          1.029850746265e+002 0.000000000000e+000 0.000000000000e+000
          1.044776119399e+002 0.000000000000e+000 0.000000000000e+000
          1.059701492534e+002 0.000000000000e+000 0.000000000000e+000
          1.074626865668e+002 0.000000000000e+000 0.000000000000e+000
          1.089552238802e+002 0.000000000000e+000 0.000000000000e+000
          1.104477611937e+002 0.000000000000e+000 0.000000000000e+000
          1.119402985071e+002 0.000000000000e+000 0.000000000000e+000
          1.134328358205e+002 0.000000000000e+000 0.000000000000e+000
          1.149253731340e+002 0.000000000000e+000 0.000000000000e+000
          1.164179104474e+002 0.000000000000e+000 0.000000000000e+000
          1.179104477608e+002 0.000000000000e+000 0.000000000000e+000
          1.194029850742e+002 0.000000000000e+000 0.000000000000e+000
          1.208955223877e+002 0.000000000000e+000 0.000000000000e+000
          1.223880597011e+002 0.000000000000e+000 0.000000000000e+000
          1.238805970145e+002 0.000000000000e+000 0.000000000000e+000
          1.253731343280e+002 0.000000000000e+000 0.000000000000e+000
          1.268656716414e+002 0.000000000000e+000 0.000000000000e+000
          1.283582089548e+002 0.000000000000e+000 0.000000000000e+000
          1.298507462683e+002 0.000000000000e+000 0.000000000000e+000
          1.313432835817e+002 0.000000000000e+000 0.000000000000e+000
          1.328358208952e+002 0.000000000000e+000 0.000000000000e+000
          1.343283582086e+002 0.000000000000e+000 0.000000000000e+000
          1.358208955220e+002 0.000000000000e+000 0.000000000000e+000
          1.373134328355e+002 0.000000000000e+000 0.000000000000e+000
          1.388059701489e+002 0.000000000000e+000 0.000000000000e+000
          1.402985074624e+002 0.000000000000e+000 0.000000000000e+000
          1.417910447758e+002 0.000000000000e+000 0.000000000000e+000
          1.432835820892e+002 0.000000000000e+000 0.000000000000e+000
          1.447761194027e+002 0.000000000000e+000 0.000000000000e+000
          1.462686567161e+002 0.000000000000e+000 0.000000000000e+000
          1.477611940296e+002 0.000000000000e+000 0.000000000000e+000
          1.492537313430e+002 0.000000000000e+000 0.000000000000e+000
          1.507462686564e+002 0.000000000000e+000 0.000000000000e+000
          1.522388059699e+002 0.000000000000e+000 0.000000000000e+000
          1.537313432833e+002 0.000000000000e+000 0.000000000000e+000
          1.552238805968e+002 0.000000000000e+000 0.000000000000e+000
          1.567164179102e+002 0.000000000000e+000 0.000000000000e+000
          1.582089552237e+002 0.000000000000e+000 0.000000000000e+000
          1.597014925371e+002 0.000000000000e+000 0.000000000000e+000
          1.611940298505e+002 0.000000000000e+000 0.000000000000e+000
          1.626865671640e+002 0.000000000000e+000 0.000000000000e+000
          1.641791044774e+002 0.000000000000e+000 0.000000000000e+000
          1.656716417909e+002 0.000000000000e+000 0.000000000000e+000
          1.671641791043e+002 0.000000000000e+000 0.000000000000e+000
          1.686567164177e+002 0.000000000000e+000 0.000000000000e+000
          1.701492537312e+002 0.000000000000e+000 0.000000000000e+000
          1.716417910446e+002 0.000000000000e+000 0.000000000000e+000
          1.731343283581e+002 0.000000000000e+000 0.000000000000e+000
          1.746268656715e+002 0.000000000000e+000 0.000000000000e+000
          1.761194029849e+002 0.000000000000e+000 0.000000000000e+000
          1.776119402984e+002 0.000000000000e+000 0.000000000000e+000
          1.791044776118e+002 0.000000000000e+000 0.000000000000e+000
          1.805970149253e+002 0.000000000000e+000 0.000000000000e+000
          1.820895522387e+002 0.000000000000e+000 0.000000000000e+000
          1.835820895521e+002 0.000000000000e+000 0.000000000000e+000
          1.850746268656e+002 0.000000000000e+000 0.000000000000e+000
          1.865671641790e+002 0.000000000000e+000 0.000000000000e+000
          1.880597014925e+002 0.000000000000e+000 0.000000000000e+000
          1.895522388059e+002 0.000000000000e+000 0.000000000000e+000
          1.910447761194e+002 0.000000000000e+000 0.000000000000e+000
          1.925373134328e+002 0.000000000000e+000 0.000000000000e+000
          1.940298507462e+002 0.000000000000e+000 0.000000000000e+000
          1.955223880597e+002 0.000000000000e+000 0.000000000000e+000
          1.970149253731e+002 0.000000000000e+000 0.000000000000e+000
          1.985074626866e+002 0.000000000000e+000 0.000000000000e+000
          2.000000000000e+002 1.428571428570e+000 0.000000000000e+000
          2.000000000000e+002 2.857142857140e+000 0.000000000000e+000
[...]
      <PointData Scalars="MEAN_PRESSURE">
        <DataArray type="Float64" Name="MEAN_PRESSURE" format="ascii">
          2.000000000000e+002 1.999999778687e+002 1.999999778673e+002 2.000000000000e+002 1.983317905945e+002 1.965659240436e+002 1.960166160252e+002 1.959715248589e+002 1.960599209326e+002 1.961616307143e+002 1.962623526313e+002 1.963634066398e+002 1.964658707769e+002 1.965695317227e+002 1.966739034702e+002 1.967786301473e+002 1.968834012179e+002 1.969879256876e+002 1.970919857455e+002 1.971953586015e+002 1.972978877139e+002 1.973992944228e+002 1.974994829781e+002 1.975983074998e+002 1.976956417408e+002 1.977913147270e+002 1.978852604913e+002 1.979773533996e+002 1.980674570474e+002 1.981555019058e+002 1.982413982886e+002 1.983251341258e+002 1.984065768519e+002 1.984857111095e+002 1.985624877097e+002 1.986368467934e+002 1.987088147975e+002 1.987783039819e+002 1.988453518951e+002 1.989099794419e+002 1.989721134014e+002 1.990317343298e+002 1.990889716529e+002 1.991437791514e+002 1.991962220764e+002 1.992463124562e+002 1.992941333983e+002 1.993396022303e+002 1.993829413834e+002 1.994240644785e+002 1.994630569999e+002 1.995000032743e+002 1.995349990697e+002 1.995679592683e+002 1.995991001512e+002 1.996284402720e+002 1.996560636424e+002 1.996819775086e+002 1.997062787408e+002 1.997291139740e+002 1.997504029879e+002 1.997703004127e+002 1.997888646441e+002 1.998061834454e+002 1.998222868492e+002 1.998372478922e+002 1.998511316540e+002 1.998639887577e+002 1.998758952203e+002 1.998868862532e+002 1.998970450144e+002 1.999063913033e+002 1.999150009763e+002 1.999229095951e+002 1.999301650586e+002 1.999368207756e+002 1.999429059063e+002 1.999484766724e+002 1.999535575278e+002 1.999581907466e+002 1.999624024159e+002 1.999662374565e+002 1.999697153813e+002 1.999728712969e+002 1.999757264902e+002 1.999783077815e+002 1.999806396513e+002 1.999827420542e+002 1.999846350199e+002 1.999863376003e+002 1.999878667025e+002 1.999892384808e+002 1.999904674700e+002 1.999915662058e+002 1.999925465867e+002 1.999934225643e+002 1.999942019306e+002 1.999948954112e+002 1.999955117690e+002 1.999960590606e+002 1.999965438001e+002 1.999969722645e+002 1.999973515745e+002 1.999976858382e+002 1.999979804686e+002 1.999982398801e+002 1.999984680774e+002 1.999986682939e+002 1.999988435940e+002 1.999989973531e+002 1.999991315642e+002 1.999992487408e+002 1.999993509613e+002 1.999994400880e+002 1.999995175153e+002 1.999995846562e+002 1.999996430069e+002 1.999996934492e+002 1.999997370655e+002 1.999997747394e+002 1.999998072632e+002 1.999998352518e+002 1.999998592633e+002 1.999998798562e+002 1.999998974749e+002 1.999999124921e+002 1.999999252975e+002 1.999999361742e+002 1.999999453272e+002 1.999999530281e+002 1.999999594442e+002 1.999999646605e+002 1.999999688882e+002 1.999999722145e+002 1.999999747609e+002 1.999999764337e+002 1.999999774962e+002 1.999999778323e+002 1.999999777983e+002 1.999999778720e+002 1.999999778574e+002 1.999999778504e+002 1.999999778370e+002 1.999999778283e+002 1.999999778345e+002 1.999999778353e+002 1.999999778187e+002 1.999999778650e+002 1.999999777953e+002 1.999999778306e+002 1.999999774951e+002 1.999999764330e+002 1.999999747604e+002 1.999999722141e+002 1.999999688884e+002 1.999999646639e+002 1.999999594512e+002 1.999999530369e+002 1.999999453371e+002 1.999999361857e+002 1.999999253044e+002 1.999999125019e+002 1.999998974795e+002 1.999998798546e+002 1.999998592631e+002 1.999998352421e+002 1.999998072464e+002 1.999997748144e+002 1.999997371368e+002 1.999996934759e+002 1.999996430177e+002 1.999995847122e+002 1.999995174601e+002 1.999994401132e+002 1.999993510909e+002 1.999992489185e+002 1.999991315857e+002 1.999989973275e+002 1.999988435259e+002 1.999986682816e+002 1.999984680182e+002 1.999982399932e+002 1.999979806645e+002 1.999976856377e+002 1.999973514539e+002 1.999969721320e+002 1.999965438017e+002 1.999960589108e+002 1.999955119105e+002 1.999948956097e+002 1.999942012268e+002 1.999934221130e+002 1.999925462333e+002 1.999915661715e+002 1.999904672426e+002 1.999892374945e+002 1.999878669851e+002 1.999863377693e+002 1.999846350686e+002 1.999827419910e+002 1.999806403699e+002 1.999783104879e+002 1.999757288964e+002 1.999728711364e+002 1.999697185891e+002 1.999662375419e+002 1.999624034864e+002 1.999581872578e+002 1.999535599179e+002 1.999484771153e+002 1.999429125356e+002 1.999368242031e+002 1.999301681895e+002 1.999229067270e+002 1.999149976364e+002 1.999063956569e+002 1.998970437234e+002 1.998868946476e+002 1.998758931701e+002 1.998639901649e+002 1.998511254403e+002 1.998372445764e+002 1.998222899843e+002 1.998061872060e+002 1.997888786745e+002 1.997702961959e+002 1.997503824815e+002 1.997290653763e+002 1.997062824677e+002 1.996819754060e+002 1.996560555405e+002 1.996284620415e+002 1.995991184963e+002 1.995679731904e+002 1.995349490470e+002 1.994999969066e+002 1.994630512975e+002 1.994240073313e+002 1.993829094164e+002 1.993396341362e+002 1.992941160625e+002 1.992463628171e+002 1.991962380177e+002 1.991437723926e+002 1.990889568699e+002 1.990317059021e+002 1.989720200350e+002 1.989098976957e+002 1.988453041470e+002 1.987782235650e+002 1.987087130446e+002 1.986367232983e+002 1.985623038399e+002 1.984854838760e+002 1.984063046438e+002 1.983247829829e+002 1.982409576750e+002 1.981549345662e+002 1.980667225816e+002 1.979764202318e+002 1.978841114757e+002 1.977898935544e+002 1.976938368941e+002 1.975960263366e+002 1.974965790569e+002 1.973955986002e+002 1.972932022238e+002 1.971894838181e+002 1.970846009440e+002 1.969785944007e+002 1.968716592894e+002 1.967638482443e+002 1.966552901086e+002 1.965461275023e+002 1.964365900161e+002 1.963268580445e+002 1.962170156289e+002 1.961062435611e+002 1.959945125935e+002 1.958999601223e+002 1.959421645671e+002 1.964980678609e+002 1.982746301656e+002 2.000000000000e+002 2.000000000000e+002 2.000000000000e+002 2.000000000000e+002 2.000000000000e+002 2.000000000000e+002 2.000000000000e+002 2.000000000000e+002 2.000000000000e+002 2.000000000000e+002 2.000000000000e+002 2.000000000000e+002 2.000000000000e+002 1.999999610548e+002 1.961855819462e+002 1.999998895082e+002 1.999996699273e+002 1.999990580232e+002 1.999975023206e+002 1.999937727544e+002 1.974478865204e+002 1.999855049642e+002 1.981168796673e+002 1.986775375862e+002 1.991234148473e+002 1.995811062383e+002 1.997604781724e+002 1.998700338850e+002 1.999335525232e+002 1.999680100095e+002 1.968335453584e+002 1.993829353739e+002 1.999783047442e+002 1.999781969125e+002 1.999535588745e+002 1.999063926944e+002 1.998222908209e+002 1.996819847303e+002 1.999998118680e+002 1.999994527412e+002 1.999984922363e+002 1.996819542149e+002 1.998194613956e+002 1.999071146323e+002 1.999526717083e+002 1.999961175961e+002 1.999904646963e+002 1.977862591091e+002 1.983969847599e+002 1.989170164800e+002 1.999905212044e+002 1.999960628936e+002 1.999984696849e+002 1.999994397967e+002 1.999998071568e+002 1.989092104262e+002 1.984055044429e+002 1.977901774909e+002 1.999999351171e+002 1.999999344792e+002 1.992873618758e+002 1.994731248541e+002 1.965531108611e+002 1.971001792188e+002 1.999999723239e+002 1.959234411398e+002 1.999999724114e+002 1.958488321587e+002 1.964900453371e+002 1.971807622847e+002 1.992351981831e+002 1.995051409195e+002 1.999998890524e+002 1.999680132034e+002 1.999996690342e+002 1.999335672780e+002 1.998700587688e+002 1.997605107452e+002 1.995903394678e+002 1.999854891432e+002 1.999990684993e+002 1.999975527332e+002 1.999938912260e+002 1.981099365180e+002 1.986666719700e+002 1.999855211077e+002 1.999938213612e+002 1.999975231205e+002 1.999990663748e+002 1.997604258677e+002 1.998700056391e+002 1.999335333088e+002 1.999996690053e+002 1.999680708468e+002 1.999998890035e+002 1.991166886232e+002 1.986729934823e+002 1.981111476317e+002 1.974467268379e+002 1.999999587236e+002 1.999999591140e+002 1.962175007929e+002 1.975011253645e+002 1.996052167485e+002 1.990739931238e+002 1.999999749975e+002 1.959727073158e+002 1.968419770191e+002 1.962141636607e+002 1.968300316548e+002 1.993583401990e+002 1.992628710458e+002 1.994888920062e+002 1.965028591699e+002 1.971148144171e+002 1.993838761182e+002 1.999999426169e+002 1.999986494813e+002 1.999993538935e+002 1.999964982799e+002 1.999997758061e+002 1.999914572757e+002 1.999574252663e+002 1.998347729520e+002 1.997022605323e+002 1.999141564856e+002 1.978811594876e+002 1.988516163663e+002 1.983329751844e+002 1.999759737797e+002 1.993829153573e+002 1.999999761117e+002 1.963905214036e+002 1.999999761130e+002 1.963083344105e+002 1.999597390103e+002 1.999179000226e+002 1.998423297071e+002 1.997146120308e+002 1.999887571138e+002 1.999746172747e+002 1.999814138542e+002 1.999952963527e+002 1.989937023511e+002 1.999981494512e+002 1.985133467607e+002 1.999993153247e+002 1.979175637108e+002 1.999997616447e+002 1.999997603626e+002 1.999998459709e+002 1.999993118615e+002 1.999995438134e+002 1.999981263154e+002 1.999987262234e+002 1.999952411076e+002 1.999966852763e+002 1.979310180853e+002 1.999918837956e+002 1.999887526736e+002 1.985208118914e+002 1.982983132247e+002 1.997148257450e+002 1.998429297038e+002 1.999185463493e+002 1.998006658826e+002 1.998937776381e+002 1.999595491291e+002 1.999467104432e+002 1.988405959700e+002 1.999814185501e+002 1.999751451197e+002 1.999998442799e+002 1.976589645584e+002 1.999995319380e+002 1.983072872843e+002 1.999987067183e+002 1.988313285982e+002 1.999966374177e+002 1.996418705580e+002 1.997983759256e+002 1.998924763932e+002 1.999458805868e+002 1.999917799280e+002 1.967881058002e+002 1.999999201485e+002 1.999999195789e+002 1.995118695121e+002 1.992244952209e+002 1.972375133810e+002 1.999812298102e+002 1.998940633293e+002 1.999469575231e+002 1.998014428788e+002 1.996423999601e+002 1.976658658226e+002 1.985068456995e+002 1.999998427049e+002 1.989901211688e+002 1.999995366264e+002 1.999981714565e+002 1.999888737045e+002 1.999953488586e+002 1.976933180519e+002 1.999999456568e+002 1.999999456511e+002 1.994465565882e+002 1.964380780703e+002 1.999999213489e+002 1.999829202464e+002 1.999877548497e+002 1.999948450517e+002 1.990327833032e+002 1.999979592248e+002 1.985681354453e+002 1.997875264202e+002 1.998860914112e+002 1.999424727230e+002 1.999998597053e+002 1.975949911703e+002 1.999995894518e+002 1.970427211900e+002 1.996308189535e+002 1.999999687199e+002 1.999999682505e+002 1.999999108059e+002 1.996594287223e+002 1.989644788505e+002 1.995388842134e+002 1.991885727832e+002 1.959820679193e+002 1.973106220560e+002 1.963443152365e+002 1.966166514754e+002 1.973109456510e+002 1.999622104622e+002 1.999226686811e+002 1.998506959244e+002 1.997283617670e+002 1.999992546191e+002 1.979720439299e+002 1.999997393248e+002 1.999727579241e+002 1.999925261447e+002 1.999992449038e+002 1.999969910957e+002 1.999997356877e+002 1.999988510146e+002 1.999626893557e+002 1.999226542371e+002 1.998516679547e+002 1.997299587923e+002 1.979809610408e+002 1.987803352675e+002 1.982377739658e+002 1.982375447499e+002 1.999988505800e+002 1.987753683162e+002 1.999969886399e+002 1.999925837140e+002 1.999727444702e+002 1.999999762900e+002 1.999999763919e+002 1.964629657038e+002 1.963125878308e+002 1.999999695556e+002 1.959952356362e+002 1.999999529757e+002 1.999999541760e+002 1.960757389203e+002 1.999999657871e+002 1.962859960676e+002 1.960227584790e+002 1.991754001232e+002 1.995492337278e+002 1.973684405163e+002 1.963928603603e+002 1.991393873139e+002 1.970000969277e+002 1.969788121157e+002 1.995719206966e+002 1.967103716909e+002 1.992672525611e+002 1.994423290236e+002 1.966437812424e+002 1.985448389307e+002 1.999882809288e+002 1.999950469323e+002 1.999980443280e+002 1.999995777586e+002 1.999998569955e+002 1.999821677117e+002 1.996344142924e+002 1.997925157976e+002 1.998890334120e+002 1.999440900158e+002 1.993169519721e+002 1.969988917848e+002 1.994504285989e+002 1.993045813563e+002 1.999999143044e+002 1.999999643180e+002 1.976218878931e+002 1.990049727896e+002 1.960915204904e+002 1.958998853611e+002 1.999999715248e+002 1.966841412776e+002 1.999660552099e+002 1.999298205648e+002 1.998633790407e+002 1.997493711515e+002 1.999862947088e+002 1.999846744298e+002 1.999699144907e+002 1.999942335136e+002 1.999976992527e+002 1.990862839448e+002 1.999991369042e+002 1.986332112655e+002 1.999996954313e+002 1.980624939303e+002 1.999998793596e+002 1.999996938881e+002 1.999991390742e+002 1.999977087625e+002 1.999942551871e+002 1.980617727263e+002 1.986310393663e+002 1.997501383568e+002 1.998632839002e+002 1.999297672835e+002 1.999998788931e+002 1.975013669224e+002 1.996019593087e+002 1.999998903366e+002 1.999999562447e+002 1.999999562544e+002 1.975475040318e+002 1.972853374166e+002 1.962687708566e+002 1.994276672145e+002 1.999998232541e+002 1.999994842458e+002 1.999983446931e+002 1.999957626625e+002 1.999896914690e+002 1.977374382497e+002 1.984506005007e+002 1.989446655735e+002 1.999509566938e+002 1.998140064506e+002 1.996688290936e+002 1.999004746306e+002 1.999798344349e+002 1.999999292443e+002 1.999999731949e+002 1.999999731960e+002 1.999996603843e+002 1.999975762938e+002 1.999939462775e+002 1.986615359283e+002 1.997638652155e+002 1.998720625171e+002 1.999346846698e+002 1.958689611284e+002 1.993367742756e+002 1.999858235768e+002 1.999851966939e+002 1.995896496245e+002 1.999999770806e+002 1.972422661939e+002 1.990465823864e+002 1.996219257929e+002 1.999904215816e+002 1.999960386206e+002 1.999984595613e+002 1.999998071834e+002 1.999994400513e+002 1.989121994165e+002 1.984092503784e+002 1.977899073827e+002 1.999063896766e+002 1.999535575713e+002 1.996819566943e+002 1.998222809401e+002 1.999998071411e+002 1.999994399262e+002 1.998222544641e+002 1.999065247318e+002 1.999984673609e+002 1.999535872864e+002 1.999960574796e+002 1.999904748257e+002 1.984065117027e+002 1.999783959411e+002 1.999783038239e+002 1.969357541614e+002 1.991895111917e+002 1.968949123950e+002 1.996449055984e+002 1.993934472401e+002 1.999999479791e+002 1.999999471874e+002 1.994990946950e+002 1.995191710557e+002 1.994124469943e+002 1.999870176012e+002 1.999646256955e+002 1.999711167497e+002 1.999838417091e+002 1.999395116961e+002 1.998807428358e+002 1.997784674931e+002 1.999930560309e+002 1.981928162940e+002 1.987391097357e+002 1.999996224219e+002 1.999989333142e+002 1.999971932569e+002 1.999996188169e+002 1.981923478767e+002 1.999989334416e+002 1.987390169655e+002 1.997784802335e+002 1.998807516148e+002 1.999386502100e+002 1.999971934734e+002 1.999930563924e+002 1.959618412139e+002 1.963781533677e+002 1.999999736216e+002 1.959141621415e+002 1.999681401424e+002 1.999678849792e+002 1.981090289095e+002 1.981080232032e+002 1.999990711785e+002 1.999990701416e+002 1.999999674096e+002 1.967121438748e+002 1.961643251495e+002 1.975066051789e+002 1.968216463540e+002 1.999999771446e+002 1.973130227406e+002 1.999999771864e+002 1.971248271269e+002 1.965553194566e+002 1.999999036838e+002 1.999999039667e+002 1.999938000362e+002 1.999975139612e+002 1.986750538955e+002 1.999332718618e+002 1.997596245915e+002 1.998695233988e+002 1.999996694885e+002 1.971646267124e+002 1.971821997442e+002 1.963470648308e+002 1.995555885858e+002 1.991645253998e+002 1.963512668466e+002 1.973571285452e+002 1.978126321938e+002 1.992567885760e+002 1.972609105631e+002 1.999999338194e+002 1.999999338263e+002 1.992202896989e+002 1.995304563821e+002 1.999999196119e+002 1.990748106715e+002 1.995365740677e+002 1.994958165552e+002 1.999995391666e+002 1.976599384770e+002 1.999998440050e+002 1.997876993777e+002 1.998860070167e+002 1.999425280137e+002 1.999830378121e+002 1.985161578317e+002 1.999981401637e+002 1.989953328383e+002 1.999952742244e+002 1.999876455694e+002 1.999998884914e+002 1.969827077954e+002 1.994471482106e+002 1.993484187154e+002 1.991150486838e+002 1.965638708778e+002 1.999999772504e+002 1.975401222868e+002 1.999999772516e+002 1.976940574461e+002 1.960253036054e+002 1.974514440010e+002 1.993763658607e+002 1.992583377400e+002 1.999999677922e+002 1.988871872722e+002 1.996891562678e+002 1.971738952342e+002 1.995600019714e+002 1.967414443581e+002 1.999918506195e+002 1.999966686048e+002 1.999987195714e+002 1.988264291542e+002 1.983012003616e+002 1.999988622373e+002 1.999997327521e+002 1.999970185364e+002 1.999992373631e+002 1.999926545526e+002 1.982312659234e+002 1.987702042448e+002 1.979870678622e+002 1.997313775941e+002 1.999237830930e+002 1.998525017642e+002 1.999628729847e+002 1.999997593012e+002 1.999993090025e+002 1.979235005680e+002 1.999749340455e+002 1.997128319342e+002 1.998412392696e+002 1.999172766506e+002 1.999594042484e+002 1.999725574658e+002 1.999783063021e+002 1.999535405103e+002 1.998222456455e+002 1.999063853442e+002 1.996819264883e+002 1.999998072327e+002 1.999994399793e+002 1.999984703924e+002 1.999904658523e+002 1.999960648007e+002 1.977913060490e+002 1.984052505795e+002 1.989098685050e+002 1.991594230131e+002 1.973238685563e+002 1.999999671068e+002 1.960506566823e+002 1.999721942287e+002 1.999632812033e+002 1.999244373781e+002 1.998538361094e+002 1.997335466449e+002 1.999992196766e+002 1.999997265044e+002 1.980002360842e+002 1.999988782593e+002 1.999970507912e+002 1.999927194476e+002 1.982221979836e+002 1.987650274857e+002 1.993684666664e+002 1.999999351271e+002 1.993333101767e+002 1.999999423183e+002 1.999779743441e+002 1.999785178216e+002 1.999545809946e+002 1.999082610720e+002 1.998255762384e+002 1.996873132309e+002 1.999998031593e+002 1.999994287924e+002 1.999984277444e+002 1.999959621247e+002 1.999906171329e+002 1.984212671216e+002 1.999903655727e+002 1.998243244887e+002 1.999051860226e+002 1.999541932219e+002 1.999960236537e+002 1.999984533217e+002 1.989139318449e+002 1.999994407778e+002 1.984114739663e+002 1.999998075176e+002 1.977887483612e+002 1.968353523259e+002 1.999993669043e+002 1.978684722177e+002 1.999997805736e+002 1.998340177703e+002 1.999571947834e+002 1.999136066041e+002 1.997010260419e+002 1.983443201359e+002 1.999986217555e+002 1.988607449458e+002 1.999964309394e+002 1.999912902194e+002 1.999764062640e+002 1.961741720630e+002 1.999999771995e+002 1.974836282920e+002 1.999999518908e+002 1.999999635248e+002 1.999999635166e+002 1.993232517807e+002 1.994383701192e+002 1.971442313739e+002 1.978044191334e+002 1.999999115022e+002 1.961293463314e+002 1.999999337383e+002 1.999999334509e+002 1.974187476493e+002 1.999875922546e+002 1.999947824837e+002 1.990397375128e+002 1.999979327336e+002 1.985753415804e+002 1.999429351139e+002 1.998860844851e+002 1.997889628463e+002 1.999830034204e+002 1.999998628313e+002 1.975713614249e+002 1.999995953012e+002 1.991131481466e+002 1.995870107884e+002 1.992927429844e+002 1.965300689980e+002 1.963130867200e+002 1.999999753174e+002 1.960420859052e+002 1.999999753157e+002 1.959345192922e+002 1.996908577146e+002 1.988889753655e+002 1.996215873122e+002 1.966222998092e+002 1.999998710399e+002 1.959339495291e+002 1.992305912744e+002 1.994787313584e+002 1.992850303603e+002 1.971129984108e+002 1.965385600265e+002 1.968611416309e+002 1.989808613770e+002 1.965353999515e+002 1.969709574976e+002 1.993136053783e+002 1.962189548405e+002 1.964277163514e+002 1.994066529178e+002 1.992019333564e+002 1.994865735589e+002 1.992513796416e+002 1.999999590852e+002 1.960299088292e+002 1.976340987505e+002 1.999801224485e+002 1.999837380204e+002 1.999998704836e+002 1.999996173796e+002 1.999998317947e+002 1.999995045441e+002 1.999979409061e+002 1.999948016384e+002 1.985737601020e+002 1.999895396615e+002 1.999871051487e+002 1.996574357421e+002 1.996176341427e+002 1.998072425443e+002 1.997798060314e+002 1.998815366816e+002 1.998976705903e+002 1.999487920548e+002 1.999399345358e+002 1.958623006226e+002 1.999999721747e+002 1.999999721190e+002 1.999999751042e+002 1.999999751042e+002 1.958746173236e+002 1.999999743095e+002 1.999603193194e+002 1.999189874262e+002 1.998442308367e+002 1.997177230024e+002 1.999743446525e+002 1.999817063816e+002 1.999885803087e+002 1.999952165456e+002 1.990018058101e+002 1.999981159374e+002 1.985237267957e+002 1.999993022159e+002 1.979299579351e+002 1.999997568254e+002 1.999997567885e+002 1.999993021211e+002 1.999998477017e+002 1.999981143093e+002 1.999952125132e+0