<?xml version="1.0"?>
<VTKFile type="UnstructuredGrid" version="0.1" byte_order="LittleEndian">
  <UnstructuredGrid>
    <Piece NumberOfPoints="2604" NumberOfCells="4910">
      <Points>
        <DataArray type="Float64" NumberOfComponents="3" format="ascii">
          0.000000000000e+000 0.000000000000e+000 0.000000000000e+000
          2.000000000000e+002 0.000000000000e+000 0.000000000000e+000
          2.000000000000e+002 2.000000000000e+001 0.000000000000e+000
          0.000000000000e+000 2.000000000000e+001 0.000000000000e+000
          1.492537313427e+000 0.000000000000e+000 0.000000000000e+000
          2.985074626854e+000 0.000000000000e+000 0.000000000000e+000
          4.477611940281e+000 0.000000000000e+000 0.000000000000e+000
          5.970149253708e+000 0.000000000000e+000 0.000000000000e+000
          7.462686567135e+000 0.000000000000e+000 0.000000000000e+000
          8.955223880561e+000 0.000000000000e+000 0.000000000000e+000
          1.044776119399e+001 0.000000000000e+000 0.000000000000e+000
          1.194029850741e+001 0.000000000000e+000 0.000000000000e+000
          1.343283582084e+001 0.000000000000e+000 0.000000000000e+000
          1.492537313427e+001 0.000000000000e+000 0.000000000000e+000
          1.641791044770e+001 0.000000000000e+000 0.000000000000e+000
          1.791044776112e+001 0.000000000000e+000 0.000000000000e+000
          1.940298507455e+001 0.000000000000e+000 0.000000000000e+000
          2.089552238798e+001 0.000000000000e+000 0.000000000000e+000
          2.238805970141e+001 0.000000000000e+000 0.000000000000e+000
          2.388059701484e+001 0.000000000000e+000 0.000000000000e+000
          2.537313432826e+001 0.000000000000e+000 0.000000000000e+000
          2.686567164169e+001 0.000000000000e+000 0.000000000000e+000
          2.835820895511e+001 0.000000000000e+000 0.000000000000e+000
          2.985074626854e+001 0.000000000000e+000 0.000000000000e+000
          3.134328358196e+001 0.000000000000e+000 0.000000000000e+000
          3.283582089539e+001 0.000000000000e+000 0.000000000000e+000
          3.432835820881e+001 0.000000000000e+000 0.000000000000e+000
          3.582089552224e+001 0.000000000000e+000 0.000000000000e+000
          3.731343283566e+001 0.000000000000e+000 0.000000000000e+000
          3.880597014909e+001 0.000000000000e+000 0.000000000000e+000
          4.029850746251e+001 0.000000000000e+000 0.000000000000e+000
          4.179104477594e+001 0.000000000000e+000 0.000000000000e+000
          4.328358208936e+001 0.000000000000e+000 0.000000000000e+000
          4.477611940279e+001 0.000000000000e+000 0.000000000000e+000
          4.626865671621e+001 0.000000000000e+000 0.000000000000e+000
          4.776119402964e+001 0.000000000000e+000 0.000000000000e+000
          4.925373134306e+001 0.000000000000e+000 0.000000000000e+000
          5.074626865649e+001 0.000000000000e+000 0.000000000000e+000
          5.223880596991e+001 0.000000000000e+000 0.000000000000e+000
          5.373134328334e+001 0.000000000000e+000 0.000000000000e+000
          5.522388059676e+001 0.000000000000e+000 0.000000000000e+000
          5.671641791019e+001 0.000000000000e+000 0.000000000000e+000
          5.820895522361e+001 0.000000000000e+000 0.000000000000e+000
          5.970149253704e+001 0.000000000000e+000 0.000000000000e+000
          6.119402985046e+001 0.000000000000e+000 0.000000000000e+000
          6.268656716389e+001 0.000000000000e+000 0.000000000000e+000
          6.417910447732e+001 0.000000000000e+000 0.000000000000e+000
          6.567164179075e+001 0.000000000000e+000 0.000000000000e+000
          6.716417910418e+001 0.000000000000e+000 0.000000000000e+000
          6.865671641761e+001 0.000000000000e+000 0.000000000000e+000
          7.014925373104e+001 0.000000000000e+000 0.000000000000e+000
          7.164179104447e+001 0.000000000000e+000 0.000000000000e+000
          7.313432835790e+001 0.000000000000e+000 0.000000000000e+000
          7.462686567133e+001 0.000000000000e+000 0.000000000000e+000
          7.611940298476e+001 0.000000000000e+000 0.000000000000e+000
          7.761194029819e+001 0.000000000000e+000 0.000000000000e+000
          7.910447761162e+001 0.000000000000e+000 0.000000000000e+000
          8.059701492505e+001 0.000000000000e+000 0.000000000000e+000
          8.208955223848e+001 0.000000000000e+000 0.000000000000e+000
          8.358208955191e+001 0.000000000000e+000 0.000000000000e+000
          8.507462686534e+001 0.000000000000e+000 0.000000000000e+000
          8.656716417877e+001 0.000000000000e+000 0.000000000000e+000
          8.805970149220e+001 0.000000000000e+000 0.000000000000e+000
          8.955223880563e+001 0.000000000000e+000 0.000000000000e+000
          9.104477611907e+001 0.000000000000e+000 0.000000000000e+000
          9.253731343250e+001 0.000000000000e+000 0.000000000000e+000
          9.402985074593e+001 0.000000000000e+000 0.000000000000e+000
          9.552238805936e+001 0.000000000000e+000 0.000000000000e+000
          9.701492537279e+001 0.000000000000e+000 0.000000000000e+000
          9.850746268622e+001 0.000000000000e+000 0.000000000000e+000
          9.999999999965e+001 0.000000000000e+000 0.000000000000e+000
          1.014925373131e+002 0.000000000000e+000 0.000000000000e+000
          1.029850746265e+002 0.000000000000e+000 0.000000000000e+000
          1.044776119399e+002 0.000000000000e+000 0.000000000000e+000
          1.059701492534e+002 0.000000000000e+000 0.000000000000e+000
          1.074626865668e+002 0.000000000000e+000 0.000000000000e+000
          1.089552238802e+002 0.000000000000e+000 0.000000000000e+000
          1.104477611937e+002 0.000000000000e+000 0.000000000000e+000
          1.119402985071e+002 0.000000000000e+000 0.000000000000e+000
          1.134328358205e+002 0.000000000000e+000 0.000000000000e+000
          1.149253731340e+002 0.000000000000e+000 0.000000000000e+000
          1.164179104474e+002 0.000000000000e+000 0.000000000000e+000
          1.179104477608e+002 0.000000000000e+000 0.000000000000e+000
          1.194029850742e+002 0.000000000000e+000 0.000000000000e+000
          1.208955223877e+002 0.000000000000e+000 0.000000000000e+000
          1.223880597011e+002 0.000000000000e+000 0.000000000000e+000
          1.238805970145e+002 0.000000000000e+000 0.000000000000e+000
          1.253731343280e+002 0.000000000000e+000 0.000000000000e+000
          1.268656716414e+002 0.000000000000e+000 0.000000000000e+000
          1.283582089548e+002 0.000000000000e+000 0.000000000000e+000
          1.298507462683e+002 0.000000000000e+000 0.000000000000e+000
          1.313432835817e+002 0.000000000000e+000 0.000000000000e+000
          1.328358208952e+002 0.000000000000e+000 0.000000000000e+000
          1.343283582086e+002 0.000000000000e+000 0.000000000000e+000
          1.358208955220e+002 0.000000000000e+000 0.000000000000e+000
          1.373134328355e+002 0.000000000000e+000 0.000000000000e+000
          1.388059701489e+002 0.000000000000e+000 0.000000000000e+000
          1.402985074624e+002 0.000000000000e+000 0.000000000000e+000
          1.417910447758e+002 0.000000000000e+000 0.000000000000e+000
          1.432835820892e+002 0.000000000000e+000 0.000000000000e+000
          1.447761194027e+002 0.000000000000e+000 0.000000000000e+000
          1.462686567161e+002 0.000000000000e+000 0.000000000000e+000
          1.477611940296e+002 0.000000000000e+000 0.000000000000e+000
          1.492537313430e+002 0.000000000000e+000 0.000000000000e+000
          1.507462686564e+002 0.000000000000e+000 0.000000000000e+000
          1.522388059699e+002 0.000000000000e+000 0.000000000000e+000
          1.537313432833e+002 0.000000000000e+000 0.000000000000e+000
          1.552238805968e+002 0.000000000000e+000 0.000000000000e+000
          1.567164179102e+002 0.000000000000e+000 0.000000000000e+000
          1.582089552237e+002 0.000000000000e+000 0.000000000000e+000
          1.597014925371e+002 0.000000000000e+000 0.000000000000e+000
          1.611940298505e+002 0.000000000000e+000 0.000000000000e+000
          1.626865671640e+002 0.000000000000e+000 0.000000000000e+000
          1.641791044774e+002 0.000000000000e+000 0.000000000000e+000
          1.656716417909e+002 0.000000000000e+000 0.000000000000e+000
          1.671641791043e+002 0.000000000000e+000 0.000000000000e+000
          1.686567164177e+002 0.000000000000e+000 0.000000000000e+000
          1.701492537312e+002 0.000000000000e+000 0.000000000000e+000
          1.716417910446e+002 0.000000000000e+000 0.000000000000e+000
          1.731343283581e+002 0.000000000000e+000 0.000000000000e+000
          1.746268656715e+002 0.000000000000e+000 0.000000000000e+000
          1.761194029849e+002 0.000000000000e+000 0.000000000000e+000
          1.776119402984e+002 0.000000000000e+000 0.000000000000e+000
          1.791044776118e+002 0.000000000000e+000 0.000000000000e+000
          1.805970149253e+002 0.000000000000e+000 0.000000000000e+000
          1.820895522387e+002 0.000000000000e+000 0.000000000000e+000
          1.835820895521e+002 0.000000000000e+000 0.000000000000e+000
          1.850746268656e+002 0.000000000000e+000 0.000000000000e+000
          1.865671641790e+002 0.000000000000e+000 0.000000000000e+000
          1.880597014925e+002 0.000000000000e+000 0.000000000000e+000
          1.895522388059e+002 0.000000000000e+000 0.000000000000e+000
          1.910447761194e+002 0.000000000000e+000 0.000000000000e+000
          1.925373134328e+002 0.000000000000e+000 0.000000000000e+000
          1.940298507462e+002 0.000000000000e+000 0.000000000000e+000
          1.955223880597e+002 0.000000000000e+000 0.000000000000e+000
          1.970149253731e+002 0.000000000000e+000 0.000000000000e+000
          1.985074626866e+002 0.000000000000e+000 0.000000000000e+000
          2.000000000000e+002 1.428571428570e+000 0.000000000000e+000
          2.000000000000e+002 2.857142857140e+000 0.000000000000e+000
[...]
      <PointData Scalars="MEAN_PRESSURE">
        <DataArray type="Float64" Name="MEAN_PRESSURE" format="ascii">
          2.000000000000e+002 1.998161386347e+002 1.998161373627e+002 2.000000000000e+002 1.992659978171e+002 1.979657405817e+002 1.972007017423e+002 1.967669364834e+002 1.965571391049e+002 1.964840193566e+002 1.964802062321e+002 1.965117772646e+002 1.965572479621e+002 1.966068367589e+002 1.966566214530e+002 1.967054969909e+002 1.967534872039e+002 1.968008636625e+002 1.968479099407e+002 1.968948024151e+002 1.969416361612e+002 1.969884264909e+002 1.970351860866e+002 1.970818978166e+002 1.971285386745e+002 1.971750835733e+002 1.972215164056e+002 1.972678147867e+002 1.973139547936e+002 1.973599204959e+002 1.974056935432e+002 1.974512625978e+002 1.974966045468e+002 1.975417081719e+002 1.975865581044e+002 1.976311370495e+002 1.976754373733e+002 1.977194375442e+002 1.977631304573e+002 1.978065070212e+002 1.978495449713e+002 1.978922275497e+002 1.979345593254e+002 1.979765189378e+002 1.980181014838e+002 1.980592931818e+002 1.981000919793e+002 1.981404651971e+002 1.981804360383e+002 1.982199693745e+002 1.982590625300e+002 1.982977127032e+002 1.983359209685e+002 1.983736445006e+002 1.984109126280e+002 1.984477078955e+002 1.984840293473e+002 1.985198534962e+002 1.985551825809e+002 1.985900381985e+002 1.986243659121e+002 1.986581901039e+002 1.986915041897e+002 1.987243141671e+002 1.987566023681e+002 1.987883701815e+002 1.988196168182e+002 1.988503346680e+002 1.988805314968e+002 1.989101936412e+002 1.989393375056e+002 1.989679406674e+002 1.989960201377e+002 1.990235664326e+002 1.990505797882e+002 1.990770686604e+002 1.991030219036e+002 1.991284566900e+002 1.991533599207e+002 1.991777400854e+002 1.992015891184e+002 1.992249256233e+002 1.992477375210e+002 1.992700376817e+002 1.992918205224e+002 1.993130916167e+002 1.993338574664e+002 1.993541181897e+002 1.993738774452e+002 1.993931399530e+002 1.994119093208e+002 1.994301903521e+002 1.994479872420e+002 1.994653005922e+002 1.994821325018e+002 1.994984979813e+002 1.995143900635e+002 1.995298191957e+002 1.995447905459e+002 1.995593101884e+002 1.995733781296e+002 1.995869968676e+002 1.996001808029e+002 1.996129238544e+002 1.996252362666e+002 1.996371233461e+002 1.996485911492e+002 1.996596399828e+002 1.996702723940e+002 1.996805018779e+002 1.996903228152e+002 1.996997444969e+002 1.997087726955e+002 1.997174137749e+002 1.997256653042e+002 1.997335304527e+002 1.997410220228e+002 1.997481340830e+002 1.997548747840e+002 1.997612486005e+002 1.997672612382e+002 1.997729122293e+002 1.997782017517e+002 1.997831357734e+002 1.997877165648e+002 1.997919440984e+002 1.997958280343e+002 1.997993702931e+002 1.998025636927e+002 1.998054227546e+002 1.998079465120e+002 1.998101146460e+002 1.998119513258e+002 1.998134537265e+002 1.998146399727e+002 1.998154408499e+002 1.998159561417e+002 1.998161208067e+002 1.998161042046e+002 1.998161402582e+002 1.998161330257e+002 1.998161294840e+002 1.998161229770e+002 1.998161187082e+002 1.998161216700e+002 1.998161220123e+002 1.998161138717e+002 1.998161363768e+002 1.998161021746e+002 1.998161194006e+002 1.998159549973e+002 1.998154399434e+002 1.998146391887e+002 1.998134529516e+002 1.998119507310e+002 1.998101151194e+002 1.998079480247e+002 1.998054244876e+002 1.998025653284e+002 1.997993718334e+002 1.997958284332e+002 1.997919447801e+002 1.997877163901e+002 1.997831346762e+002 1.997782009366e+002 1.997729105446e+002 1.997672591073e+002 1.997612533400e+002 1.997548787134e+002 1.997481350969e+002 1.997410218130e+002 1.997335317473e+002 1.997256621358e+002 1.997174133441e+002 1.997087756435e+002 1.996997484733e+002 1.996903228215e+002 1.996805006777e+002 1.996702701121e+002 1.996596386859e+002 1.996485893118e+002 1.996371241837e+002 1.996252378217e+002 1.996129209656e+002 1.996001789317e+002 1.995869950066e+002 1.995733776531e+002 1.995593089588e+002 1.995447917131e+002 1.995298205268e+002 1.995143864410e+002 1.994984958679e+002 1.994821310227e+002 1.994653007483e+002 1.994479868104e+002 1.994301873206e+002 1.994119105591e+002 1.993931408086e+002 1.993738778335e+002 1.993541181496e+002 1.993338589695e+002 1.993130969465e+002 1.992918249140e+002 1.992700373673e+002 1.992477427673e+002 1.992249258699e+002 1.992015903089e+002 1.991777351633e+002 1.991533619926e+002 1.991284563292e+002 1.991030278375e+002 1.990770711560e+002 1.990505817785e+002 1.990235631588e+002 1.989960166774e+002 1.989679429251e+002 1.989393356227e+002 1.989101979934e+002 1.988805294380e+002 1.988503346634e+002 1.988196127752e+002 1.987883678250e+002 1.987566031447e+002 1.987243151504e+002 1.986915095470e+002 1.986581882592e+002 1.986243583636e+002 1.985900214647e+002 1.985551837171e+002 1.985198527535e+002 1.984840268668e+002 1.984477136335e+002 1.984109170939e+002 1.983736474258e+002 1.983359083439e+002 1.982977103731e+002 1.982590601605e+002 1.982199557589e+002 1.981804270076e+002 1.981404678131e+002 1.981000841799e+002 1.980592957558e+002 1.980180961416e+002 1.979765074998e+002 1.979345437218e+002 1.978922063000e+002 1.978495098634e+002 1.978064677830e+002 1.977630882073e+002 1.977193814750e+002 1.976753666307e+002 1.976310482601e+002 1.975864427651e+002 1.975415631333e+002 1.974964228551e+002 1.974510319146e+002 1.974054025193e+002 1.973595521157e+002 1.973134873300e+002 1.972672232910e+002 1.972207719609e+002 1.971741452631e+002 1.971273505609e+002 1.970803961325e+002 1.970332882841e+002 1.969860263137e+002 1.969385968945e+002 1.968909633113e+002 1.968430569823e+002 1.967947173206e+002 1.967457347693e+002 1.966957213931e+002 1.966443126772e+002 1.965914378325e+002 1.965381756657e+002 1.964886228983e+002 1.964531142089e+002 1.964506702112e+002 1.965245462783e+002 1.967370421372e+002 1.971681191609e+002 1.979429735790e+002 1.992404883387e+002 2.000000000000e+002 2.000000000000e+002 2.000000000000e+002 2.000000000000e+002 2.000000000000e+002 2.000000000000e+002 2.000000000000e+002 2.000000000000e+002 2.000000000000e+002 2.000000000000e+002 2.000000000000e+002 2.000000000000e+002 2.000000000000e+002 1.998086076041e+002 1.964532638834e+002 1.997856140663e+002 1.997447582515e+002 1.996848407628e+002 1.996058011251e+002 1.995054974944e+002 1.970107176879e+002 1.993835599086e+002 1.973396199977e+002 1.976560509269e+002 1.979607941237e+002 1.983891581963e+002 1.986413254108e+002 1.988654847854e+002 1.990638780671e+002 1.992363829485e+002 1.967295324121e+002 1.981804339233e+002 1.993130850148e+002 1.993121228808e+002 1.991533609315e+002 1.989679414783e+002 1.987566041886e+002 1.985198560391e+002 1.997681440008e+002 1.997186905855e+002 1.996498999132e+002 1.985198464438e+002 1.987508441638e+002 1.989702271380e+002 1.991489252493e+002 1.995609763324e+002 1.994479777587e+002 1.971725317362e+002 1.974912308579e+002 1.978113569565e+002 1.994488011399e+002 1.995594450908e+002 1.996486965718e+002 1.997174037596e+002 1.997672521694e+002 1.978060293755e+002 1.974960002949e+002 1.971743540229e+002 1.997990167217e+002 1.997988042601e+002 1.980942716000e+002 1.982694441425e+002 1.965953711613e+002 1.968504630052e+002 1.998135031843e+002 1.967505022358e+002 1.998135447393e+002 1.967365461008e+002 1.965675169056e+002 1.968879222573e+002 1.980499473778e+002 1.983031934107e+002 1.997854744437e+002 1.992363874325e+002 1.997446183665e+002 1.990638910891e+002 1.988654987938e+002 1.986413372775e+002 1.984002455067e+002 1.993833742764e+002 1.996856272320e+002 1.996077317859e+002 1.995079098399e+002 1.973360453531e+002 1.976493601536e+002 1.993837462881e+002 1.995064919852e+002 1.996065983728e+002 1.996854553057e+002 1.986412688951e+002 1.988654358580e+002 1.990638318898e+002 1.997446183185e+002 1.992367960325e+002 1.997854685908e+002 1.979555779781e+002 1.976532498558e+002 1.973366009376e+002 1.970099706788e+002 1.998076580165e+002 1.998078150079e+002 1.964511415967e+002 1.970358665739e+002 1.984184541656e+002 1.979233282751e+002 1.998147535736e+002 1.972490773175e+002 1.967342671448e+002 1.964700636345e+002 1.967267459068e+002 1.981575708344e+002 1.980732437463e+002 1.982859471682e+002 1.965721531569e+002 1.968575249393e+002 1.981813297996e+002 1.998015931354e+002 1.996585723708e+002 1.997090817860e+002 1.995720179688e+002 1.997614611296e+002 1.994636041648e+002 1.991736543662e+002 1.987830448471e+002 1.985492610696e+002 1.989932759265e+002 1.972194191908e+002 1.977673408783e+002 1.974555815429e+002 1.992938883774e+002 1.981804293567e+002 1.998152856608e+002 1.977903549805e+002 1.998152856538e+002 1.977525903757e+002 1.991863634949e+002 1.990059726800e+002 1.987996552372e+002 1.985677623364e+002 1.994236521564e+002 1.992831636360e+002 1.993411884555e+002 1.995394435151e+002 1.978649033742e+002 1.996328833375e+002 1.975577438612e+002 1.997055561685e+002 1.972375496691e+002 1.997589856184e+002 1.997587439929e+002 1.997752311893e+002 1.997052099059e+002 1.997286872426e+002 1.996317826319e+002 1.996630867716e+002 1.995380548884e+002 1.995777898166e+002 1.972444259833e+002 1.994706410845e+002 1.994236002825e+002 1.975620772185e+002 1.974365978699e+002 1.985679573281e+002 1.988009366188e+002 1.990081884373e+002 1.987137218498e+002 1.989298128710e+002 1.991852948956e+002 1.991202554758e+002 1.977599913643e+002 1.993412414617e+002 1.992872667272e+002 1.997748529209e+002 1.971105643079e+002 1.997273113060e+002 1.974414467929e+002 1.996619068791e+002 1.977539009304e+002 1.995762760617e+002 1.984651439464e+002 1.987092738031e+002 1.989259855411e+002 1.991163580585e+002 1.994688780459e+002 1.967077631050e+002 1.997942373986e+002 1.997940646116e+002 1.983105038430e+002 1.980411649258e+002 1.969130536397e+002 1.993394332122e+002 1.989306639055e+002 1.991214247715e+002 1.987152350147e+002 1.984658782331e+002 1.971140500500e+002 1.975539572708e+002 1.997745187936e+002 1.978623175594e+002 1.997278478355e+002 1.996339013067e+002 1.994252252261e+002 1.995407271716e+002 1.971274125668e+002 1.998026804121e+002 1.998026797706e+002 1.982423583899e+002 1.965388649675e+002 1.997946035157e+002 1.993559225386e+002 1.994105156105e+002 1.995286553998e+002 1.978929803746e+002 1.996243099345e+002 1.975898994353e+002 1.986890372494e+002 1.989079952110e+002 1.991011054628e+002 1.997782990458e+002 1.970800219540e+002 1.997341170932e+002 1.968255200919e+002 1.984508038625e+002 1.998118742070e+002 1.998116688083e+002 1.997914458518e+002 1.984886261019e+002 1.978442112578e+002 1.983403700444e+002 1.980119582672e+002 1.965150235692e+002 1.969468854058e+002 1.964963192139e+002 1.966291534713e+002 1.969475924343e+002 1.992004709658e+002 1.990227024829e+002 1.988186304281e+002 1.985889260784e+002 1.997002256461e+002 1.972650258380e+002 1.997552301142e+002 1.992691374749e+002 1.994816889125e+002 1.996993789710e+002 1.995875745436e+002 1.997546206254e+002 1.996707185005e+002 1.992032839147e+002 1.990226288599e+002 1.988209015990e+002 1.985914601533e+002 1.972695807813e+002 1.977206758705e+002 1.974037004023e+002 1.974035754574e+002 1.996707103003e+002 1.977175597495e+002 1.995875527921e+002 1.994828201493e+002 1.992691131408e+002 1.998153706434e+002 1.998154199594e+002 1.978926209831e+002 1.977645029811e+002 1.998122497395e+002 1.965564128836e+002 1.998053993758e+002 1.998058658266e+002 1.964570445990e+002 1.998105967321e+002 1.964789190056e+002 1.965932060357e+002 1.980013646909e+002 1.983519481763e+002 1.969739212937e+002 1.965237126400e+002 1.979730919375e+002 1.968046100910e+002 1.967962440024e+002 1.983782695508e+002 1.966727902757e+002 1.980769430796e+002 1.982380984595e+002 1.966388954010e+002 1.975761263700e+002 1.994172210810e+002 1.995333515347e+002 1.996280451460e+002 1.997326658348e+002 1.997776709323e+002 1.993483721731e+002 1.984554183783e+002 1.986982652996e+002 1.989162033037e+002 1.991082740957e+002 1.981201969880e+002 1.968045935388e+002 1.982462282892e+002 1.981091998058e+002 1.997924690402e+002 1.998099709211e+002 1.970930475184e+002 1.978729325147e+002 1.964901185693e+002 1.966557679633e+002 1.998131376640e+002 1.966594687996e+002 1.992238259129e+002 1.990493064397e+002 1.988488876300e+002 1.986227416912e+002 1.993926689501e+002 1.993743393304e+002 1.992491402156e+002 1.995151101248e+002 1.996134981314e+002 1.979325582473e+002 1.996907622228e+002 1.976289542551e+002 1.997484478215e+002 1.973113316114e+002 1.997830169567e+002 1.997482064744e+002 1.996909180910e+002 1.996138833372e+002 1.995155899188e+002 1.973110379172e+002 1.976276558181e+002 1.986239885422e+002 1.988486480451e+002 1.990490965733e+002 1.997829040438e+002 1.970355725054e+002 1.984144352321e+002 1.997858165789e+002 1.998066761864e+002 1.998066784464e+002 1.970577902148e+002 1.969354654200e+002 1.964660278404e+002 1.982235670040e+002 1.997704355964e+002 1.997220343547e+002 1.996422736584e+002 1.995513037599e+002 1.994365915115e+002 1.971486187893e+002 1.975215638850e+002 1.978304031177e+002 1.991403991752e+002 1.987397792312e+002 1.985014767126e+002 1.989496069424e+002 1.993265059230e+002 1.997970811396e+002 1.998139063339e+002 1.998139073350e+002 1.997434007761e+002 1.996086338995e+002 1.995090355212e+002 1.976462029064e+002 1.986470787762e+002 1.988706225700e+002 1.990683829471e+002 1.968649882665e+002 1.981379302813e+002 1.993871543894e+002 1.993800675443e+002 1.983993935849e+002 1.998157536015e+002 1.985195135533e+002 1.979030556776e+002 1.984393498376e+002 1.994473243164e+002 1.995587691703e+002 1.996481637099e+002 1.997672544954e+002 1.997174256652e+002 1.978080676570e+002 1.974981060521e+002 1.971741729070e+002 1.989679389501e+002 1.991533592881e+002 1.985198471954e+002 1.987565992762e+002 1.997672507208e+002 1.997174073354e+002 1.987565878423e+002 1.989684198929e+002 1.996485791934e+002 1.991535738210e+002 1.995592983289e+002 1.994481398190e+002 1.974965928265e+002 1.993138670147e+002 1.993130835782e+002 1.967755065342e+002 1.980127208972e+002 1.967586243877e+002 1.984692346051e+002 1.981904076882e+002 1.998035313485e+002 1.998032421143e+002 1.982967785064e+002 1.983185061877e+002 1.982086512687e+002 1.994013021561e+002 1.992149133434e+002 1.992574286400e+002 1.993654072115e+002 1.990883347613e+002 1.988933984536e+002 1.986726317577e+002 1.994914877975e+002 1.973796935983e+002 1.976944668613e+002 1.997383168181e+002 1.996761313003e+002 1.995945393919e+002 1.997378332082e+002 1.973793805838e+002 1.996761347201e+002 1.976944057258e+002 1.986726363782e+002 1.988934028235e+002 1.990847172881e+002 1.995945419967e+002 1.994914893514e+002 1.969938384709e+002 1.965112110356e+002 1.998141068777e+002 1.969467522561e+002 1.992372219196e+002 1.992355522110e+002 1.973355408343e+002 1.973349900259e+002 1.996858113940e+002 1.996857293980e+002 1.998113004696e+002 1.966718218198e+002 1.964815121414e+002 1.970383500535e+002 1.967227054669e+002 1.998157849175e+002 1.986320386799e+002 1.998158047946e+002 1.985348581021e+002 1.965983385076e+002 1.997894273989e+002 1.997895084271e+002 1.995060469963e+002 1.996062412658e+002 1.976545141781e+002 1.990627254585e+002 1.986398480457e+002 1.988641658752e+002 1.997446895554e+002 1.968800221586e+002 1.968887787053e+002 1.965007039165e+002 1.983592971837e+002 1.979928024753e+002 1.965054584460e+002 1.969681759760e+002 1.971855377441e+002 1.980681231897e+002 1.969238799329e+002 1.997985761323e+002 1.997985766655e+002 1.980376952669e+002 1.983309413464e+002 1.997940664151e+002 1.979239470667e+002 1.983377879141e+002 1.982932838372e+002 1.997281501325e+002 1.971110839006e+002 1.997748014986e+002 1.986893683310e+002 1.989077573360e+002 1.991013621436e+002 1.993571198141e+002 1.975593831643e+002 1.996324547547e+002 1.978660508945e+002 1.995389033094e+002 1.994091110047e+002 1.997853460603e+002 1.967976601529e+002 1.982429439011e+002 1.981484897808e+002 1.979543587789e+002 1.966011675015e+002 1.998158358682e+002 1.987295212761e+002 1.998158370609e+002 1.988389598417e+002 1.964798441343e+002 1.970122988774e+002 1.981743084383e+002 1.980694010985e+002 1.998114689661e+002 1.977910626753e+002 1.985301357702e+002 1.968846279765e+002 1.983644292881e+002 1.966881730380e+002 1.994701053654e+002 1.995772703809e+002 1.996626846246e+002 1.977507094448e+002 1.974381377649e+002 1.996714866450e+002 1.997541818887e+002 1.995885638317e+002 1.996987905669e+002 1.994840829046e+002 1.974002599040e+002 1.977142579627e+002 1.972727453240e+002 1.985936641774e+002 1.990267638762e+002 1.988228114144e+002 1.992043637155e+002 1.997585848261e+002 1.997049907488e+002 1.972405448972e+002 1.992856691252e+002 1.985651009133e+002 1.987972652200e+002 1.990038637825e+002 1.991845333271e+002 1.992677570814e+002 1.993130883934e+002 1.991533396290e+002 1.987565837928e+002 1.989679367111e+002 1.985198381795e+002 1.997672574157e+002 1.997174088306e+002 1.996487428522e+002 1.994479820230e+002 1.995595052193e+002 1.971749752705e+002 1.974958728362e+002 1.978064364513e+002 1.979888316720e+002 1.969534633074e+002 1.998111697160e+002 1.964829214152e+002 1.992651377529e+002 1.992067956147e+002 1.990291516526e+002 1.988259655761e+002 1.985971172861e+002 1.996973420174e+002 1.997531972927e+002 1.972794089457e+002 1.996725520604e+002 1.995896696238e+002 1.994852993449e+002 1.973954071900e+002 1.977109682401e+002 1.981669639696e+002 1.997990193313e+002 1.981348332606e+002 1.998014950138e+002 1.993102844523e+002 1.993149008120e+002 1.991586510157e+002 1.989739413184e+002 1.987634888359e+002 1.985275095911e+002 1.997664786105e+002 1.997162825201e+002 1.996465005325e+002 1.995566603480e+002 1.994503019791e+002 1.975049118176e+002 1.994464672685e+002 1.987608455725e+002 1.989641664932e+002 1.991566224342e+002 1.995583681939e+002 1.996478470073e+002 1.978092641911e+002 1.997175110326e+002 1.974993727385e+002 1.997673261206e+002 1.971736332757e+002 1.967308045305e+002 1.997102735444e+002 1.972130552667e+002 1.997622974632e+002 1.987814163963e+002 1.991724091221e+002 1.989913692306e+002 1.985474478079e+002 1.974618840907e+002 1.996570339984e+002 1.977734050345e+002 1.995700575026e+002 1.994608746579e+002 1.992973214415e+002 1.964597921819e+002 1.998158113213e+002 1.986584651465e+002 1.998049906344e+002 1.998096363991e+002 1.998096341574e+002 1.981258191304e+002 1.982341800555e+002 1.968703010564e+002 1.971814873732e+002 1.997916600218e+002 1.964458301173e+002 1.997985565214e+002 1.997984598291e+002 1.969974645461e+002 1.994084357184e+002 1.995272061833e+002 1.978980364546e+002 1.996231557704e+002 1.975941696000e+002 1.991031991961e+002 1.989080199930e+002 1.986917368946e+002 1.993567927923e+002 1.997790295288e+002 1.970688298759e+002 1.997348438068e+002 1.979528194513e+002 1.983961602825e+002 1.980988759617e+002 1.965877299183e+002 1.964925394404e+002 1.998149054375e+002 1.974041993477e+002 1.998149050670e+002 1.973364309028e+002 1.985325398668e+002 1.977922765503e+002 1.984389079462e+002 1.966314029131e+002 1.997809781599e+002 1.969408729753e+002 1.980462134732e+002 1.982752727105e+002 1.980922227819e+002 1.968561618963e+002 1.965879289636e+002 1.967418390737e+002 1.978557533851e+002 1.965862254917e+002 1.967929065864e+002 1.981172577203e+002 1.964530952704e+002 1.965374755515e+002 1.982030770558e+002 1.980227654990e+002 1.982834506123e+002 1.980635162964e+002 1.998078046189e+002 1.965534288583e+002 1.970988821446e+002 1.993290751615e+002 1.993643046439e+002 1.997808368441e+002 1.997376410323e+002 1.997721744643e+002 1.997242113098e+002 1.996234575860e+002 1.995275828567e+002 1.975931859015e+002 1.994343891915e+002 1.994023608194e+002 1.984859413544e+002 1.984339609060e+002 1.987264356513e+002 1.986750151600e+002 1.988955209964e+002 1.989412552747e+002 1.991300022827e+002 1.990901156491e+002 1.967118667797e+002 1.998134338076e+002 1.998134103653e+002 1.998148032422e+002 1.998148038595e+002 1.970373943289e+002 1.998144278191e+002 1.991895820211e+002 1.990096874497e+002 1.988038646482e+002 1.985724523632e+002 1.992810731752e+002 1.993439293474e+002 1.994212241743e+002 1.995374536226e+002 1.978706419267e+002 1.996313056529e+002 1.975637638226e+002 1.997043623009e+002 1.972437432805e+002 1.997581462677e+002 1.997581341624e+002 1.997043442745e+002 1.997755994632e+002 1.996312318116e+002 1.995373607822e+0