<?xml version="1.0"?>
<VTKFile type="UnstructuredGrid" version="0.1" byte_order="LittleEndian">
  <UnstructuredGrid>
    <Piece NumberOfPoints="2604" NumberOfCells="4910">
      <Points>
        <DataArray type="Float64" NumberOfComponents="3" format="ascii">
          0.000000000000e+000 0.000000000000e+000 0.000000000000e+000
          2.000000000000e+002 0.000000000000e+000 0.000000000000e+000
          2.000000000000e+002 2.000000000000e+001 0.000000000000e+000
          0.000000000000e+000 2.000000000000e+001 0.000000000000e+000
          1.492537313427e+000 0.000000000000e+000 0.000000000000e+000
          2.985074626854e+000 0.000000000000e+000 0.000000000000e+000
          4.477611940281e+000 0.000000000000e+000 0.000000000000e+000
          5.970149253708e+000 0.000000000000e+000 0.000000000000e+000
          7.462686567135e+000 0.000000000000e+000 0.000000000000e+000
          8.955223880561e+000 0.000000000000e+000 0.000000000000e+000
          1.044776119399e+001 0.000000000000e+000 0.000000000000e+000
          1.194029850741e+001 0.000000000000e+000 0.000000000000e+000
          1.343283582084e+001 0.000000000000e+000 0.000000000000e+000
          1.492537313427e+001 0.000000000000e+000 0.000000000000e+000
          1.641791044770e+001 0.000000000000e+000 0.000000000000e+000
          1.791044776112e+001 0.000000000000e+000 0.000000000000e+000
          1.940298507455e+001 0.000000000000e+000 0.000000000000e+000
          2.089552238798e+001 0.000000000000e+000 0.000000000000e+000
          2.238805970141e+001 0.000000000000e+000 0.000000000000e+000
          2.388059701484e+001 0.000000000000e+000 0.000000000000e+000
          2.537313432826e+001 0.000000000000e+000 0.000000000000e+000
          2.686567164169e+001 0.000000000000e+000 0.000000000000e+000
          2.835820895511e+001 0.000000000000e+000 0.000000000000e+000
          2.985074626854e+001 0.000000000000e+000 0.000000000000e+000
          3.134328358196e+001 0.000000000000e+000 0.000000000000e+000
          3.283582089539e+001 0.000000000000e+000 0.000000000000e+000
          3.432835820881e+001 0.000000000000e+000 0.000000000000e+000
          3.582089552224e+001 0.000000000000e+000 0.000000000000e+000
          3.731343283566e+001 0.000000000000e+000 0.000000000000e+000
          3.880597014909e+001 0.000000000000e+000 0.000000000000e+000
          4.029850746251e+001 0.000000000000e+000 0.000000000000e+000
          4.179104477594e+001 0.000000000000e+000 0.000000000000e+000
          4.328358208936e+001 0.000000000000e+000 0.000000000000e+000
          4.477611940279e+001 0.000000000000e+000 0.000000000000e+000
          4.626865671621e+001 0.000000000000e+000 0.000000000000e+000
          4.776119402964e+001 0.000000000000e+000 0.000000000000e+000
          4.925373134306e+001 0.000000000000e+000 0.000000000000e+000
          5.074626865649e+001 0.000000000000e+000 0.000000000000e+000
          5.223880596991e+001 0.000000000000e+000 0.000000000000e+000
          5.373134328334e+001 0.000000000000e+000 0.000000000000e+000
          5.522388059676e+001 0.000000000000e+000 0.000000000000e+000
          5.671641791019e+001 0.000000000000e+000 0.000000000000e+000
          5.820895522361e+001 0.000000000000e+000 0.000000000000e+000
          5.970149253704e+001 0.000000000000e+000 0.000000000000e+000
          6.119402985046e+001 0.000000000000e+000 0.000000000000e+000
          6.268656716389e+001 0.000000000000e+000 0.000000000000e+000
          6.417910447732e+001 0.000000000000e+000 0.000000000000e+000
          6.567164179075e+001 0.000000000000e+000 0.000000000000e+000
          6.716417910418e+001 0.000000000000e+000 0.000000000000e+000
          6.865671641761e+001 0.000000000000e+000 0.000000000000e+000
          7.014925373104e+001 0.000000000000e+000 0.000000000000e+000
          7.164179104447e+001 0.000000000000e+000 0.000000000000e+000
          7.313432835790e+001 0.000000000000e+000 0.000000000000e+000
          7.462686567133e+001 0.000000000000e+000 0.000000000000e+000
          7.611940298476e+001 0.000000000000e+000 0.000000000000e+000
          7.761194029819e+001 0.000000000000e+000 0.000000000000e+000
          7.910447761162e+001 0.000000000000e+000 0.000000000000e+000
          8.059701492505e+001 0.000000000000e+000 0.000000000000e+000
          8.208955223848e+001 0.000000000000e+000 0.000000000000e+000
          8.358208955191e+001 0.000000000000e+000 0.000000000000e+000
          8.507462686534e+001 0.000000000000e+000 0.000000000000e+000
          8.656716417877e+001 0.000000000000e+000 0.000000000000e+000
          8.805970149220e+001 0.000000000000e+000 0.000000000000e+000
          8.955223880563e+001 0.000000000000e+000 0.000000000000e+000
          9.104477611907e+001 0.000000000000e+000 0.000000000000e+000
          9.253731343250e+001 0.000000000000e+000 0.000000000000e+000
          9.402985074593e+001 0.000000000000e+000 0.000000000000e+000
          9.552238805936e+001 0.000000000000e+000 0.000000000000e+000
          9.701492537279e+001 0.000000000000e+000 0.000000000000e+000
          9.850746268622e+001 0.000000000000e+000 0.000000000000e+000
          9.999999999965e+001 0.000000000000e+000 0.000000000000e+000
          1.014925373131e+002 0.000000000000e+000 0.000000000000e+000
          1.029850746265e+002 0.000000000000e+000 0.000000000000e+000
          1.044776119399e+002 0.000000000000e+000 0.000000000000e+000
          1.059701492534e+002 0.000000000000e+000 0.000000000000e+000
          1.074626865668e+002 0.000000000000e+000 0.000000000000e+000
          1.089552238802e+002 0.000000000000e+000 0.000000000000e+000
          1.104477611937e+002 0.000000000000e+000 0.000000000000e+000
          1.119402985071e+002 0.000000000000e+000 0.000000000000e+000
          1.134328358205e+002 0.000000000000e+000 0.000000000000e+000
          1.149253731340e+002 0.000000000000e+000 0.000000000000e+000
          1.164179104474e+002 0.000000000000e+000 0.000000000000e+000
          1.179104477608e+002 0.000000000000e+000 0.000000000000e+000
          1.194029850742e+002 0.000000000000e+000 0.000000000000e+000
          1.208955223877e+002 0.000000000000e+000 0.000000000000e+000
          1.223880597011e+002 0.000000000000e+000 0.000000000000e+000
          1.238805970145e+002 0.000000000000e+000 0.000000000000e+000
          1.253731343280e+002 0.000000000000e+000 0.000000000000e+000
          1.268656716414e+002 0.000000000000e+000 0.000000000000e+000
          1.283582089548e+002 0.000000000000e+000 0.000000000000e+000
          1.298507462683e+002 0.000000000000e+000 0.000000000000e+000
          1.313432835817e+002 0.000000000000e+000 0.000000000000e+000
          1.328358208952e+002 0.000000000000e+000 0.000000000000e+000
          1.343283582086e+002 0.000000000000e+000 0.000000000000e+000
          1.358208955220e+002 0.000000000000e+000 0.000000000000e+000
          1.373134328355e+002 0.000000000000e+000 0.000000000000e+000
          1.388059701489e+002 0.000000000000e+000 0.000000000000e+000
          1.402985074624e+002 0.000000000000e+000 0.000000000000e+000
          1.417910447758e+002 0.000000000000e+000 0.000000000000e+000
          1.432835820892e+002 0.000000000000e+000 0.000000000000e+000
          1.447761194027e+002 0.000000000000e+000 0.000000000000e+000
          1.462686567161e+002 0.000000000000e+000 0.000000000000e+000
          1.477611940296e+002 0.000000000000e+000 0.000000000000e+000
          1.492537313430e+002 0.000000000000e+000 0.000000000000e+000
          1.507462686564e+002 0.000000000000e+000 0.000000000000e+000
          1.522388059699e+002 0.000000000000e+000 0.000000000000e+000
          1.537313432833e+002 0.000000000000e+000 0.000000000000e+000
          1.552238805968e+002 0.000000000000e+000 0.000000000000e+000
          1.567164179102e+002 0.000000000000e+000 0.000000000000e+000
          1.582089552237e+002 0.000000000000e+000 0.000000000000e+000
          1.597014925371e+002 0.000000000000e+000 0.000000000000e+000
          1.611940298505e+002 0.000000000000e+000 0.000000000000e+000
          1.626865671640e+002 0.000000000000e+000 0.000000000000e+000
          1.641791044774e+002 0.000000000000e+000 0.000000000000e+000
          1.656716417909e+002 0.000000000000e+000 0.000000000000e+000
          1.671641791043e+002 0.000000000000e+000 0.000000000000e+000
          1.686567164177e+002 0.000000000000e+000 0.000000000000e+000
          1.701492537312e+002 0.000000000000e+000 0.000000000000e+000
          1.716417910446e+002 0.000000000000e+000 0.000000000000e+000
          1.731343283581e+002 0.000000000000e+000 0.000000000000e+000
          1.746268656715e+002 0.000000000000e+000 0.000000000000e+000
          1.761194029849e+002 0.000000000000e+000 0.000000000000e+000
          1.776119402984e+002 0.000000000000e+000 0.000000000000e+000
          1.791044776118e+002 0.000000000000e+000 0.000000000000e+000
          1.805970149253e+002 0.000000000000e+000 0.000000000000e+000
          1.820895522387e+002 0.000000000000e+000 0.000000000000e+000
          1.835820895521e+002 0.000000000000e+000 0.000000000000e+000
          1.850746268656e+002 0.000000000000e+000 0.000000000000e+000
          1.865671641790e+002 0.000000000000e+000 0.000000000000e+000
          1.880597014925e+002 0.000000000000e+000 0.000000000000e+000
          1.895522388059e+002 0.000000000000e+000 0.000000000000e+000
          1.910447761194e+002 0.000000000000e+000 0.000000000000e+000
          1.925373134328e+002 0.000000000000e+000 0.000000000000e+000
          1.940298507462e+002 0.000000000000e+000 0.000000000000e+000
          1.955223880597e+002 0.000000000000e+000 0.000000000000e+000
          1.970149253731e+002 0.000000000000e+000 0.000000000000e+000
          1.985074626866e+002 0.000000000000e+000 0.000000000000e+000
          2.000000000000e+002 1.428571428570e+000 0.000000000000e+000
          2.000000000000e+002 2.857142857140e+000 0.000000000000e+000
[...]
      <PointData Scalars="MEAN_PRESSURE">
        <DataArray type="Float64" Name="MEAN_PRESSURE" format="ascii">
          2.000000000000e+002 1.979841117618e+002 1.979841109730e+002 2.000000000000e+002 1.996630659057e+002 1.989133206796e+002 1.983592106895e+002 1.979223673285e+002 1.975842473627e+002 1.973299534976e+002 1.971393537346e+002 1.970026168274e+002 1.969073129578e+002 1.968446415023e+002 1.968059423057e+002 1.967857986712e+002 1.967788610616e+002 1.967813356722e+002 1.967902081301e+002 1.968033234200e+002 1.968190335707e+002 1.968362786138e+002 1.968542008335e+002 1.968723163215e+002 1.968903359652e+002 1.969080926526e+002 1.969255221372e+002 1.969426046706e+002 1.969593484591e+002 1.969757908653e+002 1.969919706744e+002 1.970079327800e+002 1.970237066571e+002 1.970393257549e+002 1.970548142444e+002 1.970701909478e+002 1.970854726771e+002 1.971006675717e+002 1.971157846384e+002 1.971308292824e+002 1.971458021395e+002 1.971607035707e+002 1.971755369747e+002 1.971902996484e+002 1.972049914251e+002 1.972196100205e+002 1.972341550173e+002 1.972486199826e+002 1.972630088270e+002 1.972773142973e+002 1.972915351711e+002 1.973056701181e+002 1.973197185446e+002 1.973336710659e+002 1.973475325246e+002 1.973612984537e+002 1.973749676280e+002 1.973885340883e+002 1.974019970970e+002 1.974153600714e+002 1.974286101524e+002 1.974417511837e+002 1.974547803833e+002 1.974676977011e+002 1.974804977184e+002 1.974931792235e+002 1.975057404697e+002 1.975181780232e+002 1.975304920381e+002 1.975426775069e+002 1.975547366263e+002 1.975666620164e+002 1.975784560164e+002 1.975901142848e+002 1.976016348080e+002 1.976130177335e+002 1.976242579845e+002 1.976353580193e+002 1.976463120212e+002 1.976571200421e+002 1.976677774535e+002 1.976782871560e+002 1.976886432259e+002 1.976988469569e+002 1.977088941401e+002 1.977187838066e+002 1.977285153618e+002 1.977380861486e+002 1.977474946034e+002 1.977567394660e+002 1.977658191383e+002 1.977747323762e+002 1.977834777461e+002 1.977920524982e+002 1.978004543840e+002 1.978086858068e+002 1.978167412130e+002 1.978246214408e+002 1.978323253883e+002 1.978398523491e+002 1.978471992074e+002 1.978543638213e+002 1.978613489208e+002 1.978681488849e+002 1.978747648875e+002 1.978811960808e+002 1.978874420206e+002 1.978934997215e+002 1.978993672179e+002 1.979050476195e+002 1.979105352957e+002 1.979158316221e+002 1.979209364205e+002 1.979258499133e+002 1.979305680076e+002 1.979350894506e+002 1.979394180118e+002 1.979435479547e+002 1.979474809251e+002 1.979512167717e+002 1.979547561453e+002 1.979580964508e+002 1.979612355066e+002 1.979641744348e+002 1.979669124626e+002 1.979694476178e+002 1.979717836466e+002 1.979739200226e+002 1.979758509586e+002 1.979775836299e+002 1.979791162157e+002 1.979804353380e+002 1.979815544589e+002 1.979824710687e+002 1.979831955159e+002 1.979836850418e+002 1.979840001350e+002 1.979841008570e+002 1.979840907029e+002 1.979841127552e+002 1.979841083302e+002 1.979841061616e+002 1.979841021823e+002 1.979840995711e+002 1.979841013815e+002 1.979841015903e+002 1.979840966102e+002 1.979841103727e+002 1.979840894514e+002 1.979840999864e+002 1.979839994244e+002 1.979836844772e+002 1.979831950272e+002 1.979824705867e+002 1.979815540866e+002 1.979804356111e+002 1.979791171134e+002 1.979775846546e+002 1.979758519171e+002 1.979739209133e+002 1.979717838608e+002 1.979694479916e+002 1.979669123422e+002 1.979641737851e+002 1.979612350250e+002 1.979580954879e+002 1.979547549460e+002 1.979512193354e+002 1.979474830264e+002 1.979435484873e+002 1.979394178811e+002 1.979350900748e+002 1.979305663448e+002 1.979258496297e+002 1.979209378307e+002 1.979158335240e+002 1.979105352821e+002 1.979050470276e+002 1.978993661087e+002 1.978934990686e+002 1.978874411403e+002 1.978811964141e+002 1.978747655186e+002 1.978681476142e+002 1.978613480974e+002 1.978543630127e+002 1.978471989832e+002 1.978398518502e+002 1.978323258661e+002 1.978246219717e+002 1.978167398653e+002 1.978086850384e+002 1.978004538597e+002 1.977920525824e+002 1.977834776317e+002 1.977747313584e+002 1.977658195964e+002 1.977567397894e+002 1.977474947607e+002 1.977380861541e+002 1.977285158452e+002 1.977187854745e+002 1.977088954948e+002 1.976988468684e+002 1.976886448063e+002 1.976782872484e+002 1.976677777952e+002 1.976571186291e+002 1.976463125674e+002 1.976353578797e+002 1.976242595523e+002 1.976130183613e+002 1.976016352909e+002 1.975901133886e+002 1.975784550846e+002 1.975666625340e+002 1.975547361002e+002 1.975426785115e+002 1.975304914842e+002 1.975181779636e+002 1.975057394581e+002 1.974931786122e+002 1.974804978243e+002 1.974676978419e+002 1.974547814940e+002 1.974417506893e+002 1.974286084123e+002 1.974153563608e+002 1.974019971746e+002 1.973885337263e+002 1.973749668528e+002 1.973612992875e+002 1.973475329990e+002 1.973336711048e+002 1.973197153546e+002 1.973056687866e+002 1.972915336016e+002 1.972773102554e+002 1.972630052821e+002 1.972486181635e+002 1.972341506060e+002 1.972196067592e+002 1.972049856970e+002 1.971902915238e+002 1.971755264921e+002 1.971606900244e+002 1.971457833477e+002 1.971308065739e+002 1.971157574715e+002 1.971006326523e+002 1.970854285592e+002 1.970701353262e+002 1.970547428202e+002 1.970392356502e+002 1.970235938669e+002 1.970077895419e+002 1.969917898173e+002 1.969755609708e+002 1.969590553867e+002 1.969422339820e+002 1.969250603898e+002 1.969075155055e+002 1.968896054516e+002 1.968713945930e+002 1.968530426356e+002 1.968348433773e+002 1.968172769974e+002 1.968011204373e+002 1.967874155809e+002 1.967778717441e+002 1.967744862583e+002 1.967804456637e+002 1.967995397671e+002 1.968363628233e+002 1.968981178745e+002 1.969921890458e+002 1.971281284910e+002 1.973151877399e+002 1.975711189264e+002 1.979105676915e+002 1.983464066822e+002 1.989053018424e+002 1.996510204167e+002 2.000000000000e+002 2.000000000000e+002 2.000000000000e+002 2.000000000000e+002 2.000000000000e+002 2.000000000000e+002 2.000000000000e+002 2.000000000000e+002 2.000000000000e+002 2.000000000000e+002 2.000000000000e+002 2.000000000000e+002 2.000000000000e+002 1.979795182630e+002 1.972008228621e+002 1.979656549921e+002 1.979415858227e+002 1.979074684612e+002 1.978643429020e+002 1.978122273882e+002 1.968445293693e+002 1.977521340626e+002 1.969684945299e+002 1.970787729954e+002 1.971847594645e+002 1.973394307638e+002 1.974351909669e+002 1.975243473491e+002 1.976073404905e+002 1.976834803600e+002 1.967781506920e+002 1.972630077470e+002 1.977187817143e+002 1.977183307406e+002 1.976463122744e+002 1.975666622065e+002 1.974804981035e+002 1.973885344787e+002 1.979552767204e+002 1.979265777169e+002 1.978881586982e+002 1.973885325731e+002 1.974782106557e+002 1.975676188773e+002 1.976443570700e+002 1.978407211437e+002 1.977834744632e+002 1.969070751571e+002 1.970218270190e+002 1.971325133745e+002 1.977838792964e+002 1.978399237765e+002 1.978875004649e+002 1.979258448709e+002 1.979547511261e+002 1.971306575181e+002 1.970234569055e+002 1.969076394276e+002 1.979737065773e+002 1.979735783256e+002 1.972320766106e+002 1.972953243118e+002 1.968369882683e+002 1.967896338387e+002 1.979825012453e+002 1.979213287687e+002 1.979825266371e+002 1.979282126362e+002 1.968834316253e+002 1.968010128299e+002 1.972162837609e+002 1.973076792030e+002 1.979655710158e+002 1.976834816656e+002 1.979415041922e+002 1.976073439162e+002 1.975243506846e+002 1.974351935100e+002 1.973435560988e+002 1.977520447932e+002 1.979079086208e+002 1.978653734562e+002 1.978134499807e+002 1.969672503092e+002 1.970764730511e+002 1.977522235895e+002 1.978127315707e+002 1.978647684377e+002 1.979078119186e+002 1.974351706038e+002 1.975243285258e+002 1.976073221489e+002 1.979415042275e+002 1.976836685740e+002 1.979655676719e+002 1.971829199019e+002 1.970777990758e+002 1.969673773992e+002 1.968440748013e+002 1.979789409196e+002 1.979790363232e+002 1.971233036543e+002 1.968544039089e+002 1.973503478206e+002 1.971715947017e+002 1.979832649601e+002 1.984111232151e+002 1.967791675527e+002 1.972028239579e+002 1.967758592343e+002 1.972547697271e+002 1.972245746107e+002 1.973013604352e+002 1.968677208781e+002 1.967919579881e+002 1.972633309722e+002 1.979752635441e+002 1.978929133072e+002 1.979211130189e+002 1.978464872715e+002 1.979513423219e+002 1.977912132252e+002 1.976553061072e+002 1.974910500155e+002 1.973997366233e+002 1.975773039510e+002 1.969246382883e+002 1.971172391041e+002 1.970094064610e+002 1.977098568819e+002 1.972630063669e+002 1.979835901641e+002 1.987999569621e+002 1.979835901490e+002 1.987813502298e+002 1.976609667064e+002 1.975826612246e+002 1.974977085699e+002 1.974068131655e+002 1.977715388919e+002 1.977048918881e+002 1.977319721754e+002 1.978295689153e+002 1.971511537550e+002 1.978788983242e+002 1.970448317868e+002 1.979191153137e+002 1.969313009602e+002 1.979498890037e+002 1.979497466827e+002 1.979594715291e+002 1.979189181585e+002 1.979323033838e+002 1.978783012670e+002 1.978953994138e+002 1.978288523191e+002 1.978495166190e+002 1.969339919636e+002 1.977947131700e+002 1.977715138555e+002 1.970463613093e+002 1.970027993283e+002 1.974068818457e+002 1.974982203072e+002 1.975835971274e+002 1.974635207669e+002 1.975507881470e+002 1.976604894287e+002 1.976317722388e+002 1.971146965232e+002 1.977319976337e+002 1.977067880439e+002 1.979592468751e+002 1.968831365525e+002 1.979315128342e+002 1.970044412945e+002 1.978947483084e+002 1.971125769492e+002 1.978487204927e+002 1.973678495703e+002 1.974617643622e+002 1.975492000827e+002 1.976300662494e+002 1.977938340697e+002 1.967799341301e+002 1.979708262638e+002 1.979707223556e+002 1.973103651126e+002 1.972131657823e+002 1.968084428259e+002 1.977311439960e+002 1.975511418405e+002 1.976322845947e+002 1.974641184487e+002 1.973681277981e+002 1.968846269416e+002 1.970435425535e+002 1.979590489496e+002 1.971502536303e+002 1.979318209055e+002 1.978794493883e+002 1.977723066077e+002 1.978302297148e+002 1.968898799469e+002 1.979759215798e+002 1.979759212124e+002 1.972854512414e+002 1.968976216698e+002 1.979710465204e+002 1.977389425452e+002 1.977651439686e+002 1.978240250290e+002 1.971609623033e+002 1.978742655391e+002 1.970559461305e+002 1.974538124020e+002 1.975417718929e+002 1.976234247012e+002 1.979612932573e+002 1.968713508012e+002 1.979354275379e+002 1.967851162513e+002 1.973624619026e+002 1.979815073917e+002 1.979813822056e+002 1.979691482639e+002 1.973767056821e+002 1.971439444701e+002 1.973213637692e+002 1.972028153269e+002 1.975644474862e+002 1.968204668019e+002 1.969795929884e+002 1.968227629825e+002 1.968211687362e+002 1.976672762843e+002 1.975897474507e+002 1.975053436420e+002 1.974149353213e+002 1.979161023752e+002 1.969414809105e+002 1.979476884291e+002 1.976984299796e+002 1.978002286621e+002 1.979156240310e+002 1.978546668493e+002 1.979473313738e+002 1.978996132895e+002 1.976685382744e+002 1.975897151172e+002 1.975062608232e+002 1.974159114882e+002 1.969432165781e+002 1.971010895873e+002 1.969912498490e+002 1.969911697574e+002 1.978996094644e+002 1.971000076957e+002 1.978546578605e+002 1.978007999246e+002 1.976984225387e+002 1.979836421019e+002 1.979836722564e+002 1.988697924539e+002 1.987959022830e+002 1.979817364620e+002 1.976249615213e+002 1.979775693798e+002 1.979778525143e+002 1.973688723813e+002 1.979807289341e+002 1.970724676247e+002 1.976601304777e+002 1.971990682145e+002 1.973256340591e+002 1.968306676861e+002 1.969688050572e+002 1.971890901015e+002 1.967794365573e+002 1.967795315674e+002 1.973353857298e+002 1.967935499290e+002 1.972258927709e+002 1.972839004955e+002 1.968026096547e+002 1.970512068071e+002 1.977683993798e+002 1.978264327315e+002 1.978762799752e+002 1.979345906120e+002 1.979609196796e+002 1.977353617267e+002 1.973641931714e+002 1.974574347390e+002 1.975451569390e+002 1.976265427241e+002 1.972413508714e+002 1.967801008321e+002 1.972868577594e+002 1.972374089187e+002 1.979697627884e+002 1.979803478698e+002 1.968765545605e+002 1.971539603461e+002 1.974254688753e+002 1.978144659088e+002 1.979822781501e+002 1.967966046763e+002 1.976777924595e+002 1.976010924492e+002 1.975175927836e+002 1.974279851475e+002 1.977565140853e+002 1.977477169875e+002 1.976892847827e+002 1.978171096260e+002 1.978684579468e+002 1.971748305636e+002 1.979107826071e+002 1.970694139278e+002 1.979437312023e+002 1.969582754333e+002 1.979641036917e+002 1.979435903418e+002 1.979108696518e+002 1.978686645559e+002 1.978173545847e+002 1.969582855726e+002 1.970689894572e+002 1.974284669133e+002 1.975174950633e+002 1.976010022062e+002 1.979640363847e+002 1.968539492776e+002 1.973488471490e+002 1.979657757229e+002 1.979783445430e+002 1.979783458899e+002 1.968629483923e+002 1.968165763170e+002 1.970567978693e+002 1.972786218071e+002 1.979566310422e+002 1.979284890856e+002 1.978839966330e+002 1.978356956146e+002 1.977778705504e+002 1.968978762068e+002 1.970323297684e+002 1.971391330426e+002 1.976406008460e+002 1.974738179283e+002 1.973815652603e+002 1.975590072598e+002 1.977250615245e+002 1.979725386789e+002 1.979827474004e+002 1.979827480192e+002 1.979407971913e+002 1.978658550224e+002 1.978140207498e+002 1.970753800481e+002 1.974374260049e+002 1.975264421038e+002 1.976092763306e+002 1.980664633009e+002 1.972477098328e+002 1.977538586703e+002 1.977504578072e+002 1.973432380873e+002 1.979838762665e+002 1.992431137323e+002 1.971644915243e+002 1.973581626321e+002 1.977831521407e+002 1.978395720015e+002 1.978872092826e+002 1.979547524147e+002 1.979258572361e+002 1.971313636467e+002 1.970241780231e+002 1.969075280046e+002 1.975666615509e+002 1.976463118132e+002 1.973885325796e+002 1.974804969566e+002 1.979547503302e+002 1.979258466289e+002 1.974804944199e+002 1.975668653447e+002 1.978874365742e+002 1.976464095293e+002 1.978398475912e+002 1.977835548965e+002 1.970236988770e+002 1.977191466696e+002 1.977187812892e+002 1.967761027660e+002 1.972030865646e+002 1.967787433683e+002 1.973693939365e+002 1.972666113433e+002 1.979764370262e+002 1.979762618365e+002 1.973053291935e+002 1.973133090374e+002 1.972732110849e+002 1.977606792633e+002 1.976737681963e+002 1.976930673834e+002 1.977434525435e+002 1.976178867619e+002 1.975357674065e+002 1.974473890431e+002 1.978051525536e+002 1.969827968843e+002 1.970920409730e+002 1.979378530516e+002 1.979026166521e+002 1.978583543000e+002 1.979375729267e+002 1.969826028700e+002 1.979026182948e+002 1.970920030944e+002 1.974473899760e+002 1.975357684041e+002 1.976163229804e+002 1.978583554150e+002 1.978051531060e+002 1.981732178624e+002 1.969461140592e+002 1.979828699074e+002 1.981362642327e+002 1.976838604617e+002 1.976831027217e+002 1.969670568258e+002 1.969668178247e+002 1.979080110948e+002 1.979079650685e+002 1.979811577125e+002 1.967888444337e+002 1.973159723932e+002 1.968552812149e+002 1.967758997576e+002 1.979838954204e+002 1.993153656440e+002 1.979839075681e+002 1.992680288636e+002 1.968439989619e+002 1.979679375290e+002 1.979679861333e+002 1.978125056353e+002 1.978645776306e+002 1.970782392614e+002 1.976068434862e+002 1.974346157394e+002 1.975238083699e+002 1.979415457153e+002 1.967982125409e+002 1.968014211269e+002 1.969925554972e+002 1.973283553529e+002 1.971960423083e+002 1.970060071532e+002 1.968281286422e+002 1.969120397456e+002 1.972227517396e+002 1.968121720252e+002 1.979734404298e+002 1.979734407254e+002 1.972119342075e+002 1.973178862726e+002 1.979707232360e+002 1.971718108971e+002 1.973204117140e+002 1.973040477625e+002 1.979319948209e+002 1.968833660990e+002 1.979592166115e+002 1.974539428425e+002 1.975416735632e+002 1.976235368054e+002 1.977395113279e+002 1.970454024657e+002 1.978786663076e+002 1.971515545114e+002 1.978292907642e+002 1.977644615157e+002 1.979654947038e+002 1.967797813662e+002 1.972856636301e+002 1.972515027582e+002 1.971824932659e+002 1.968341470883e+002 1.979839265700e+002 1.993657249517e+002 1.979839273098e+002 1.994174766475e+002 1.974594971276e+002 1.968450643870e+002 1.972607998693e+002 1.972232062049e+002 1.979812604236e+002 1.971254677346e+002 1.973924450571e+002 1.967997846472e+002 1.973302575677e+002 1.967909641913e+002 1.977944472629e+002 1.978492437663e+002 1.978951774720e+002 1.971114740060e+002 1.970032883832e+002 1.979000406077e+002 1.979470758765e+002 1.978551923827e+002 1.979152939949e+002 1.978014323453e+002 1.969900408705e+002 1.970988756719e+002 1.969443780367e+002 1.974167583901e+002 1.975914752604e+002 1.975070302407e+002 1.976690227954e+002 1.979496539617e+002 1.979187953507e+002 1.969324277178e+002 1.977060518089e+002 1.974057954449e+002 1.974967508131e+002 1.975817716456e+002 1.976601520104e+002 1.976978003923e+002 1.977187827807e+002 1.976463063338e+002 1.974804934717e+002 1.975666610345e+002 1.973885307775e+002 1.979547539837e+002 1.979258473590e+002 1.978875260692e+002 1.977834759571e+002 1.978399553462e+002 1.969079744981e+002 1.970234322873e+002 1.971308014190e+002 1.971946454620e+002 1.968232504164e+002 1.979810780564e+002 1.974521902218e+002 1.976965993413e+002 1.976701155134e+002 1.975924912606e+002 1.975083056705e+002 1.974180891273e+002 1.979144787723e+002 1.979465008262e+002 1.969467447105e+002 1.979006321407e+002 1.978557775849e+002 1.978020443568e+002 1.969883019363e+002 1.970977341016e+002 1.972581523070e+002 1.979737081316e+002 1.972466001507e+002 1.979752043477e+002 1.977174758309e+002 1.977196286906e+002 1.976486532059e+002 1.975691777913e+002 1.974832420700e+002 1.973914466904e+002 1.979542947902e+002 1.979252054687e+002 1.978863009998e+002 1.978384754042e+002 1.977846221161e+002 1.970265806470e+002 1.977827288433e+002 1.974821875721e+002 1.975650842581e+002 1.976477544006e+002 1.978393639647e+002 1.978870366747e+002 1.971317806496e+002 1.979259062977e+002 1.970246211801e+002 1.979547948628e+002 1.969073382943e+002 1.967786705193e+002 1.979217883620e+002 1.969222375663e+002 1.979518333864e+002 1.974903987783e+002 1.976547524960e+002 1.975764974084e+002 1.973990447484e+002 1.970115923769e+002 1.978920695294e+002 1.971193390638e+002 1.978454631144e+002 1.977898568640e+002 1.977114469115e+002 1.972389516286e+002 1.979839115623e+002 1.993226187367e+002 1.979773215435e+002 1.979801442421e+002 1.979801428978e+002 1.972433657375e+002 1.972824769934e+002 1.967948625594e+002 1.969104898170e+002 1.979692771431e+002 1.972675948083e+002 1.979734287581e+002 1.979733703853e+002 1.968397177728e+002 1.977641338067e+002 1.978232823117e+002 1.971627314537e+002 1.978736434380e+002 1.970574232867e+002 1.976243374447e+002 1.975417841100e+002 1.974548740963e+002 1.977393571075e+002 1.979617278853e+002 1.968670471982e+002 1.979358466580e+002 1.971819509773e+002 1.973420322563e+002 1.972337199238e+002 1.968645492154e+002 1.970610657070e+002 1.979833577596e+002 1.985331436297e+002 1.979833575414e+002 1.984936016363e+002 1.973933578875e+002 1.971258881862e+002 1.973579962336e+002 1.968201197172e+002 1.979628881172e+002 1.981251118260e+002 1.972149615055e+002 1.972974542509e+002 1.972313432076e+002 1.967911041451e+002 1.968416823660e+002 1.967767071257e+002 1.971479662855e+002 1.968420094063e+002 1.967798193691e+002 1.972402989566e+002 1.971261289776e+002 1.969253171077e+002 1.972711945001e+002 1.972066435392e+002 1.973004437975e+002 1.972211088470e+002 1.979790300352e+002 1.975963521811e+002 1.968788597390e+002 1.977262657848e+002 1.977429266343e+002 1.979628037417e+002 1.979374617084e+002 1.979576592822e+002 1.979297342849e+002 1.978738040881e+002 1.978234726030e+002 1.970570976559e+002 1.977767881969e+002 1.977611905945e+002 1.973756921695e+002 1.973561459520e+002 1.974685386628e+002 1.974483203074e+002 1.975366385271e+002 1.975555364710e+002 1.976360380193e+002 1.976186571046e+002 1.978953585794e+002 1.979824588796e+002 1.979824446098e+002 1.979832952928e+002 1.979832956798e+002 1.982391227915e+002 1.979830659167e+002 1.976624016765e+002 1.975842298970e+002 1.974993974561e+002 1.974086084695e+002 1.977039271543e+002 1.977332632636e+002 1.977703517400e+002 1.978285427306e+002 1.971531545972e+002 1.978780430929e+002 1.970469108803e+002 1.979184390177e+002 1.969335923743e+002 1.979493963459e+002 1.979493891029e+002 1.979184285290e+002 1.979596897369e+002 1.978780032338e+002 1.978284951570e+0