<?xml version="1.0"?>
<VTKFile type="UnstructuredGrid" version="0.1" byte_order="LittleEndian">
  <UnstructuredGrid>
    <Piece NumberOfPoints="2604" NumberOfCells="4910">
      <Points>
        <DataArray type="Float64" NumberOfComponents="3" format="ascii">
          0.000000000000e+000 0.000000000000e+000 0.000000000000e+000
          2.000000000000e+002 0.000000000000e+000 0.000000000000e+000
          2.000000000000e+002 2.000000000000e+001 0.000000000000e+000
          0.000000000000e+000 2.000000000000e+001 0.000000000000e+000
          1.492537313427e+000 0.000000000000e+000 0.000000000000e+000
          2.985074626854e+000 0.000000000000e+000 0.000000000000e+000
          4.477611940281e+000 0.000000000000e+000 0.000000000000e+000
          5.970149253708e+000 0.000000000000e+000 0.000000000000e+000
          7.462686567135e+000 0.000000000000e+000 0.000000000000e+000
          8.955223880561e+000 0.000000000000e+000 0.000000000000e+000
          1.044776119399e+001 0.000000000000e+000 0.000000000000e+000
          1.194029850741e+001 0.000000000000e+000 0.000000000000e+000
          1.343283582084e+001 0.000000000000e+000 0.000000000000e+000
          1.492537313427e+001 0.000000000000e+000 0.000000000000e+000
          1.641791044770e+001 0.000000000000e+000 0.000000000000e+000
          1.791044776112e+001 0.000000000000e+000 0.000000000000e+000
          1.940298507455e+001 0.000000000000e+000 0.000000000000e+000
          2.089552238798e+001 0.000000000000e+000 0.000000000000e+000
          2.238805970141e+001 0.000000000000e+000 0.000000000000e+000
          2.388059701484e+001 0.000000000000e+000 0.000000000000e+000
          2.537313432826e+001 0.000000000000e+000 0.000000000000e+000
          2.686567164169e+001 0.000000000000e+000 0.000000000000e+000
          2.835820895511e+001 0.000000000000e+000 0.000000000000e+000
          2.985074626854e+001 0.000000000000e+000 0.000000000000e+000
          3.134328358196e+001 0.000000000000e+000 0.000000000000e+000
          3.283582089539e+001 0.000000000000e+000 0.000000000000e+000
          3.432835820881e+001 0.000000000000e+000 0.000000000000e+000
          3.582089552224e+001 0.000000000000e+000 0.000000000000e+000
          3.731343283566e+001 0.000000000000e+000 0.000000000000e+000
          3.880597014909e+001 0.000000000000e+000 0.000000000000e+000
          4.029850746251e+001 0.000000000000e+000 0.000000000000e+000
          4.179104477594e+001 0.000000000000e+000 0.000000000000e+000
          4.328358208936e+001 0.000000000000e+000 0.000000000000e+000
          4.477611940279e+001 0.000000000000e+000 0.000000000000e+000
          4.626865671621e+001 0.000000000000e+000 0.000000000000e+000
          4.776119402964e+001 0.000000000000e+000 0.000000000000e+000
          4.925373134306e+001 0.000000000000e+000 0.000000000000e+000
          5.074626865649e+001 0.000000000000e+000 0.000000000000e+000
          5.223880596991e+001 0.000000000000e+000 0.000000000000e+000
          5.373134328334e+001 0.000000000000e+000 0.000000000000e+000
          5.522388059676e+001 0.000000000000e+000 0.000000000000e+000
          5.671641791019e+001 0.000000000000e+000 0.000000000000e+000
          5.820895522361e+001 0.000000000000e+000 0.000000000000e+000
          5.970149253704e+001 0.000000000000e+000 0.000000000000e+000
          6.119402985046e+001 0.000000000000e+000 0.000000000000e+000
          6.268656716389e+001 0.000000000000e+000 0.000000000000e+000
          6.417910447732e+001 0.000000000000e+000 0.000000000000e+000
          6.567164179075e+001 0.000000000000e+000 0.000000000000e+000
          6.716417910418e+001 0.000000000000e+000 0.000000000000e+000
          6.865671641761e+001 0.000000000000e+000 0.000000000000e+000
          7.014925373104e+001 0.000000000000e+000 0.000000000000e+000
          7.164179104447e+001 0.000000000000e+000 0.000000000000e+000
          7.313432835790e+001 0.000000000000e+000 0.000000000000e+000
          7.462686567133e+001 0.000000000000e+000 0.000000000000e+000
          7.611940298476e+001 0.000000000000e+000 0.000000000000e+000
          7.761194029819e+001 0.000000000000e+000 0.000000000000e+000
          7.910447761162e+001 0.000000000000e+000 0.000000000000e+000
          8.059701492505e+001 0.000000000000e+000 0.000000000000e+000
          8.208955223848e+001 0.000000000000e+000 0.000000000000e+000
          8.358208955191e+001 0.000000000000e+000 0.000000000000e+000
          8.507462686534e+001 0.000000000000e+000 0.000000000000e+000
          8.656716417877e+001 0.000000000000e+000 0.000000000000e+000
          8.805970149220e+001 0.000000000000e+000 0.000000000000e+000
          8.955223880563e+001 0.000000000000e+000 0.000000000000e+000
          9.104477611907e+001 0.000000000000e+000 0.000000000000e+000
          9.253731343250e+001 0.000000000000e+000 0.000000000000e+000
          9.402985074593e+001 0.000000000000e+000 0.000000000000e+000
          9.552238805936e+001 0.000000000000e+000 0.000000000000e+000
          9.701492537279e+001 0.000000000000e+000 0.000000000000e+000
          9.850746268622e+001 0.000000000000e+000 0.000000000000e+000
          9.999999999965e+001 0.000000000000e+000 0.000000000000e+000
          1.014925373131e+002 0.000000000000e+000 0.000000000000e+000
          1.029850746265e+002 0.000000000000e+000 0.000000000000e+000
          1.044776119399e+002 0.000000000000e+000 0.000000000000e+000
          1.059701492534e+002 0.000000000000e+000 0.000000000000e+000
          1.074626865668e+002 0.000000000000e+000 0.000000000000e+000
          1.089552238802e+002 0.000000000000e+000 0.000000000000e+000
          1.104477611937e+002 0.000000000000e+000 0.000000000000e+000
          1.119402985071e+002 0.000000000000e+000 0.000000000000e+000
          1.134328358205e+002 0.000000000000e+000 0.000000000000e+000
          1.149253731340e+002 0.000000000000e+000 0.000000000000e+000
          1.164179104474e+002 0.000000000000e+000 0.000000000000e+000
          1.179104477608e+002 0.000000000000e+000 0.000000000000e+000
          1.194029850742e+002 0.000000000000e+000 0.000000000000e+000
          1.208955223877e+002 0.000000000000e+000 0.000000000000e+000
          1.223880597011e+002 0.000000000000e+000 0.000000000000e+000
          1.238805970145e+002 0.000000000000e+000 0.000000000000e+000
          1.253731343280e+002 0.000000000000e+000 0.000000000000e+000
          1.268656716414e+002 0.000000000000e+000 0.000000000000e+000
          1.283582089548e+002 0.000000000000e+000 0.000000000000e+000
          1.298507462683e+002 0.000000000000e+000 0.000000000000e+000
          1.313432835817e+002 0.000000000000e+000 0.000000000000e+000
          1.328358208952e+002 0.000000000000e+000 0.000000000000e+000
          1.343283582086e+002 0.000000000000e+000 0.000000000000e+000
          1.358208955220e+002 0.000000000000e+000 0.000000000000e+000
          1.373134328355e+002 0.000000000000e+000 0.000000000000e+000
          1.388059701489e+002 0.000000000000e+000 0.000000000000e+000
          1.402985074624e+002 0.000000000000e+000 0.000000000000e+000
          1.417910447758e+002 0.000000000000e+000 0.000000000000e+000
          1.432835820892e+002 0.000000000000e+000 0.000000000000e+000
          1.447761194027e+002 0.000000000000e+000 0.000000000000e+000
          1.462686567161e+002 0.000000000000e+000 0.000000000000e+000
          1.477611940296e+002 0.000000000000e+000 0.000000000000e+000
          1.492537313430e+002 0.000000000000e+000 0.000000000000e+000
          1.507462686564e+002 0.000000000000e+000 0.000000000000e+000
          1.522388059699e+002 0.000000000000e+000 0.000000000000e+000
          1.537313432833e+002 0.000000000000e+000 0.000000000000e+000
          1.552238805968e+002 0.000000000000e+000 0.000000000000e+000
          1.567164179102e+002 0.000000000000e+000 0.000000000000e+000
          1.582089552237e+002 0.000000000000e+000 0.000000000000e+000
          1.597014925371e+002 0.000000000000e+000 0.000000000000e+000
          1.611940298505e+002 0.000000000000e+000 0.000000000000e+000
          1.626865671640e+002 0.000000000000e+000 0.000000000000e+000
          1.641791044774e+002 0.000000000000e+000 0.000000000000e+000
          1.656716417909e+002 0.000000000000e+000 0.000000000000e+000
          1.671641791043e+002 0.000000000000e+000 0.000000000000e+000
          1.686567164177e+002 0.000000000000e+000 0.000000000000e+000
          1.701492537312e+002 0.000000000000e+000 0.000000000000e+000
          1.716417910446e+002 0.000000000000e+000 0.000000000000e+000
          1.731343283581e+002 0.000000000000e+000 0.000000000000e+000
          1.746268656715e+002 0.000000000000e+000 0.000000000000e+000
          1.761194029849e+002 0.000000000000e+000 0.000000000000e+000
          1.776119402984e+002 0.000000000000e+000 0.000000000000e+000
          1.791044776118e+002 0.000000000000e+000 0.000000000000e+000
          1.805970149253e+002 0.000000000000e+000 0.000000000000e+000
          1.820895522387e+002 0.000000000000e+000 0.000000000000e+000
          1.835820895521e+002 0.000000000000e+000 0.000000000000e+000
          1.850746268656e+002 0.000000000000e+000 0.000000000000e+000
          1.865671641790e+002 0.000000000000e+000 0.000000000000e+000
          1.880597014925e+002 0.000000000000e+000 0.000000000000e+000
          1.895522388059e+002 0.000000000000e+000 0.000000000000e+000
          1.910447761194e+002 0.000000000000e+000 0.000000000000e+000
          1.925373134328e+002 0.000000000000e+000 0.000000000000e+000
          1.940298507462e+002 0.000000000000e+000 0.000000000000e+000
          1.955223880597e+002 0.000000000000e+000 0.000000000000e+000
          1.970149253731e+002 0.000000000000e+000 0.000000000000e+000
          1.985074626866e+002 0.000000000000e+000 0.000000000000e+000
          2.000000000000e+002 1.428571428570e+000 0.000000000000e+000
          2.000000000000e+002 2.857142857140e+000 0.000000000000e+000
[...]
      <PointData Scalars="MEAN_PRESSURE">
        <DataArray type="Float64" Name="MEAN_PRESSURE" format="ascii">
          2.000000000000e+002 1.993708713238e+002 1.993708697502e+002 2.000000000000e+002 1.994439804120e+002 1.983600805914e+002 1.976505512883e+002 1.971776794522e+002 1.968845619303e+002 1.967216920741e+002 1.966408038399e+002 1.966151228465e+002 1.966215298943e+002 1.966458878531e+002 1.966789352098e+002 1.967157697040e+002 1.967536424214e+002 1.967913099801e+002 1.968283577044e+002 1.968647390320e+002 1.969005798395e+002 1.969359892401e+002 1.969711271923e+002 1.970060844564e+002 1.970409185203e+002 1.970756611229e+002 1.971103325951e+002 1.971449378013e+002 1.971794729705e+002 1.972139348480e+002 1.972483163345e+002 1.972826119243e+002 1.973168106054e+002 1.973509064852e+002 1.973848915540e+002 1.974187569280e+002 1.974524980346e+002 1.974861040782e+002 1.975195706634e+002 1.975528925233e+002 1.975860583360e+002 1.976190590370e+002 1.976518955911e+002 1.976845567264e+002 1.977170388490e+002 1.977493340870e+002 1.977814401246e+002 1.978133396786e+002 1.978450425744e+002 1.978765300654e+002 1.979077991890e+002 1.979388468481e+002 1.979696719174e+002 1.980002508177e+002 1.980305965450e+002 1.980606982589e+002 1.980905534742e+002 1.981201477474e+002 1.981494799709e+002 1.981785595075e+002 1.982073547546e+002 1.982358762816e+002 1.982641179877e+002 1.982920806359e+002 1.983197516850e+002 1.983471291126e+002 1.983742096069e+002 1.984009857738e+002 1.984274590630e+002 1.984536183306e+002 1.984794700576e+002 1.985049974951e+002 1.985302074934e+002 1.985550907926e+002 1.985796438364e+002 1.986038682367e+002 1.986277531865e+002 1.986513058201e+002 1.986745137214e+002 1.986973783739e+002 1.987198903000e+002 1.987420576834e+002 1.987638681219e+002 1.987853260411e+002 1.988064231470e+002 1.988271586970e+002 1.988475327667e+002 1.988675407601e+002 1.988871805957e+002 1.989064509096e+002 1.989253495668e+002 1.989438752603e+002 1.989620262556e+002 1.989797979239e+002 1.989971867702e+002 1.990141996006e+002 1.990308256386e+002 1.990470682004e+002 1.990629263331e+002 1.990783999307e+002 1.990934836725e+002 1.991081743606e+002 1.991224792901e+002 1.991363877691e+002 1.991499036876e+002 1.991630265886e+002 1.991757568439e+002 1.991880894447e+002 1.992000215342e+002 1.992115609162e+002 1.992226969981e+002 1.992334338626e+002 1.992437723019e+002 1.992537139004e+002 1.992632512821e+002 1.992723829374e+002 1.992811176756e+002 1.992894446859e+002 1.992973683087e+002 1.993048891511e+002 1.993120094104e+002 1.993187246276e+002 1.993250311658e+002 1.993309320707e+002 1.993364264842e+002 1.993415110854e+002 1.993461940531e+002 1.993504748777e+002 1.993543424346e+002 1.993578116147e+002 1.993608791714e+002 1.993635186631e+002 1.993657574272e+002 1.993675906973e+002 1.993690393989e+002 1.993700181835e+002 1.993706481569e+002 1.993708495227e+002 1.993708292220e+002 1.993708733096e+002 1.993708644635e+002 1.993708601286e+002 1.993708521729e+002 1.993708469525e+002 1.993708505723e+002 1.993708509900e+002 1.993708410338e+002 1.993708685493e+002 1.993708267231e+002 1.993708477855e+002 1.993706467396e+002 1.993700170581e+002 1.993690384249e+002 1.993675897362e+002 1.993657566856e+002 1.993635192143e+002 1.993608809750e+002 1.993578136746e+002 1.993543443642e+002 1.993504766748e+002 1.993461944908e+002 1.993415118463e+002 1.993364262477e+002 1.993309307648e+002 1.993250301973e+002 1.993187226808e+002 1.993120069794e+002 1.993048943833e+002 1.992973726058e+002 1.992894457784e+002 1.992811174149e+002 1.992723842380e+002 1.992632478702e+002 1.992537133391e+002 1.992437752450e+002 1.992334378319e+002 1.992226969761e+002 1.992115596875e+002 1.992000192258e+002 1.991880880944e+002 1.991757550069e+002 1.991630273103e+002 1.991499050487e+002 1.991363850731e+002 1.991224775432e+002 1.991081726407e+002 1.990934832028e+002 1.990783988547e+002 1.990629273617e+002 1.990470693496e+002 1.990308226774e+002 1.990141979035e+002 1.989971856056e+002 1.989797980963e+002 1.989620259822e+002 1.989438729711e+002 1.989253505747e+002 1.989064516178e+002 1.988871809352e+002 1.988675407625e+002 1.988475338648e+002 1.988271625101e+002 1.988064262550e+002 1.987853258336e+002 1.987638717687e+002 1.987420578868e+002 1.987198910982e+002 1.986973750753e+002 1.986745150255e+002 1.986513055161e+002 1.986277569264e+002 1.986038697553e+002 1.985796450172e+002 1.985550886793e+002 1.985302052880e+002 1.985049987837e+002 1.984794688297e+002 1.984536208243e+002 1.984274577635e+002 1.984009856860e+002 1.983742071869e+002 1.983471276806e+002 1.983197520362e+002 1.982920810926e+002 1.982641208786e+002 1.982358751917e+002 1.982073505683e+002 1.981785503932e+002 1.981494804558e+002 1.981201471978e+002 1.980905519732e+002 1.980607009809e+002 1.980305985157e+002 1.980002518835e+002 1.979696649577e+002 1.979388449801e+002 1.979077971220e+002 1.978765221560e+002 1.978450366228e+002 1.978133390437e+002 1.977814338772e+002 1.977493321670e+002 1.977170322640e+002 1.976845461430e+002 1.976518816624e+002 1.976190407093e+002 1.975860313110e+002 1.975528607766e+002 1.975195338781e+002 1.974860563663e+002 1.974524378201e+002 1.974186810721e+002 1.973847942911e+002 1.973507839021e+002 1.973166563884e+002 1.972824163761e+002 1.972480694580e+002 1.972136226786e+002 1.971790773031e+002 1.971444370847e+002 1.971097012235e+002 1.970748641258e+002 1.970399093706e+002 1.970048084808e+002 1.969695115680e+002 1.969339382959e+002 1.968979731532e+002 1.968614528110e+002 1.968242201203e+002 1.967860845475e+002 1.967470891983e+002 1.967075782370e+002 1.966687459809e+002 1.966331224102e+002 1.966062389025e+002 1.965971299156e+002 1.966206270396e+002 1.966962157102e+002 1.968611023843e+002 1.971566398304e+002 1.976274524880e+002 1.983448285485e+002 1.994251948341e+002 2.000000000000e+002 2.000000000000e+002 2.000000000000e+002 2.000000000000e+002 2.000000000000e+002 2.000000000000e+002 2.000000000000e+002 2.000000000000e+002 2.000000000000e+002 2.000000000000e+002 2.000000000000e+002 2.000000000000e+002 2.000000000000e+002 1.993616837011e+002 1.966482709487e+002 1.993339033626e+002 1.992854891326e+002 1.992164747442e+002 1.991286049309e+002 1.990215116190e+002 1.969526540739e+002 1.988968541291e+002 1.971986876664e+002 1.974377191930e+002 1.976723054519e+002 1.980128647964e+002 1.982216413982e+002 1.984142525910e+002 1.985917899437e+002 1.987529980757e+002 1.967344056974e+002 1.978450409793e+002 1.988271539279e+002 1.988262097989e+002 1.986745143346e+002 1.985049979686e+002 1.983197526912e+002 1.981201490076e+002 1.993130563579e+002 1.992551858789e+002 1.991772161993e+002 1.981201439894e+002 1.983148093683e+002 1.985070442641e+002 1.986703735596e+002 1.990801841223e+002 1.989620189249e+002 1.970737315811e+002 1.973127514486e+002 1.975566274255e+002 1.989628590710e+002 1.990785462260e+002 1.991758756035e+002 1.992537034763e+002 1.993119992075e+002 1.975525264444e+002 1.973163427740e+002 1.970750417920e+002 1.993500472463e+002 1.993497902952e+002 1.977768559933e+002 1.979161261810e+002 1.966363455707e+002 1.968300754264e+002 1.993676510513e+002 1.971687986706e+002 1.993677018236e+002 1.971663239304e+002 1.966239294034e+002 1.968593583065e+002 1.977419902152e+002 1.979432579570e+002 1.993337350174e+002 1.987530011134e+002 1.992853246782e+002 1.985917981210e+002 1.984142607661e+002 1.982216478347e+002 1.980218955329e+002 1.988966681187e+002 1.992173677144e+002 1.991307126907e+002 1.990240350686e+002 1.971960235252e+002 1.974326253467e+002 1.988970407148e+002 1.990225521979e+002 1.991294752737e+002 1.992171716959e+002 1.982215964873e+002 1.984142116431e+002 1.985917502951e+002 1.992853247288e+002 1.987533941939e+002 1.993337282566e+002 1.976682395549e+002 1.974355832476e+002 1.971964104653e+002 1.969520167712e+002 1.993605283398e+002 1.993607192734e+002 1.966170743132e+002 1.969716162324e+002 1.980367554208e+002 1.976431716159e+002 1.993691782472e+002 1.977059407448e+002 1.967382917876e+002 1.966593810860e+002 1.967320098925e+002 1.978268929826e+002 1.977602979158e+002 1.979293839425e+002 1.966244344293e+002 1.968356763486e+002 1.978457537461e+002 1.993531660553e+002 1.991868959654e+002 1.992441293319e+002 1.990920225834e+002 1.993051415774e+002 1.989780581406e+002 1.986935420235e+002 1.983425339229e+002 1.981445568003e+002 1.985277446897e+002 1.971087300683e+002 1.975228037969e+002 1.972858567299e+002 1.988084412024e+002 1.978450383184e+002 1.993698284866e+002 1.982055057825e+002 1.993698284597e+002 1.981762392715e+002 1.987055065289e+002 1.985391859183e+002 1.983568969267e+002 1.981599634018e+002 1.989372399146e+002 1.987980228579e+002 1.988547617269e+002 1.990572541136e+002 1.975979234290e+002 1.991583393379e+002 1.973630395389e+002 1.992400849389e+002 1.971222491337e+002 1.993022166046e+002 1.993019303219e+002 1.993214875991e+002 1.992396861184e+002 1.992667567264e+002 1.991571215820e+002 1.991919534798e+002 1.990557797838e+002 1.990982366693e+002 1.971274466960e+002 1.989853064473e+002 1.989371877824e+002 1.973663305194e+002 1.972715688299e+002 1.981601153458e+002 1.983580015769e+002 1.985411842652e+002 1.982830415302e+002 1.984710085904e+002 1.987044982642e+002 1.986437000282e+002 1.975171629552e+002 1.988548147853e+002 1.988020029892e+002 1.993210363132e+002 1.970273750181e+002 1.992651599600e+002 1.972751983062e+002 1.991906293920e+002 1.975124908921e+002 1.990966041671e+002 1.980750116513e+002 1.982792416327e+002 1.984676060163e+002 1.986400822400e+002 1.989834866776e+002 1.967171395028e+002 1.993442750375e+002 1.993440667304e+002 1.979491528194e+002 1.977351055130e+002 1.968784606536e+002 1.988530300211e+002 1.984717661769e+002 1.986447863365e+002 1.982843345535e+002 1.980756184177e+002 1.970300450272e+002 1.973601763803e+002 1.993206385509e+002 1.975959235160e+002 1.992657822731e+002 1.991594636770e+002 1.989388352943e+002 1.990586142392e+002 1.970400696512e+002 1.993544838702e+002 1.993544831278e+002 1.978944250239e+002 1.966065327687e+002 1.993447165624e+002 1.988693295174e+002 1.989239446173e+002 1.990458396288e+002 1.976196400434e+002 1.991488841241e+002 1.973874204039e+002 1.982620211899e+002 1.984516752342e+002 1.986259838366e+002 1.993251471863e+002 1.970045739618e+002 1.992730654650e+002 1.968107690355e+002 1.980632402143e+002 1.993656632957e+002 1.993654128759e+002 1.993409108748e+002 1.980943461094e+002 1.975819444433e+002 1.979732782505e+002 1.977122331795e+002 1.968523723694e+002 1.969043630286e+002 1.965977688543e+002 1.966595269224e+002 1.969050742224e+002 1.987188322673e+002 1.985543083184e+002 1.983733542381e+002 1.981776345939e+002 1.992339826459e+002 1.971428102723e+002 1.992977862998e+002 1.987844511627e+002 1.989967212077e+002 1.992330137516e+002 1.991087960198e+002 1.992970674318e+002 1.992005219818e+002 1.987214960157e+002 1.985542397890e+002 1.983753297933e+002 1.981797567999e+002 1.971462401450e+002 1.974870448729e+002 1.972468075710e+002 1.972467034295e+002 1.992005139602e+002 1.974846652335e+002 1.991087767076e+002 1.989979010611e+002 1.987844340564e+002 1.993699323359e+002 1.993699926250e+002 1.982985261525e+002 1.981904833245e+002 1.993661214622e+002 1.969055798557e+002 1.993577831095e+002 1.993583498592e+002 1.967243312496e+002 1.993641060399e+002 1.966157664806e+002 1.969440896850e+002 1.977039471179e+002 1.979826419740e+002 1.969249647244e+002 1.966137149922e+002 1.976818837179e+002 1.967939475548e+002 1.967875701419e+002 1.980040071419e+002 1.966903876846e+002 1.977632064192e+002 1.978910158769e+002 1.966647943703e+002 1.973769755945e+002 1.989307160888e+002 1.990507989603e+002 1.991529968469e+002 1.992713760703e+002 1.993243969190e+002 1.988618491831e+002 1.980670239677e+002 1.982698672234e+002 1.984589366375e+002 1.986326040542e+002 1.977973128219e+002 1.967940400268e+002 1.978975192725e+002 1.977886223612e+002 1.993421430808e+002 1.993633436517e+002 1.970143780755e+002 1.976041297223e+002 1.967692442757e+002 1.970604437548e+002 1.993672048784e+002 1.966801764188e+002 1.987410140296e+002 1.985784876518e+002 1.983997255763e+002 1.982059957529e+002 1.989059808612e+002 1.988876438719e+002 1.987652173877e+002 1.990315847668e+002 1.991370189875e+002 1.976503409291e+002 1.992231982521e+002 1.974170914311e+002 1.992898138049e+002 1.971774655552e+002 1.993307900199e+002 1.992895300320e+002 1.992233749078e+002 1.991374412049e+002 1.990320897034e+002 1.971772877196e+002 1.974161121368e+002 1.982070424269e+002 1.983995154855e+002 1.985782956260e+002 1.993306548948e+002 1.969712306221e+002 1.980334730115e+002 1.993341457366e+002 1.993593347060e+002 1.993593374100e+002 1.969880498208e+002 1.968957318489e+002 1.966028371879e+002 1.978794062387e+002 1.993157791126e+002 1.992590497962e+002 1.991687361734e+002 1.990698569493e+002 1.989503912958e+002 1.970558405310e+002 1.973356609557e+002 1.975712958420e+002 1.986624177550e+002 1.983053158517e+002 1.981049499912e+002 1.984886163110e+002 1.988403051428e+002 1.993477072075e+002 1.993681433123e+002 1.993681445473e+002 1.992838991694e+002 1.991316976106e+002 1.990252130459e+002 1.974302198384e+002 1.982264924634e+002 1.984187561680e+002 1.985959096801e+002 1.973110850377e+002 1.978113345003e+002 1.989004491648e+002 1.988933601314e+002 1.980211997572e+002 1.993704005094e+002 1.988289405548e+002 1.976274464245e+002 1.980538450725e+002 1.989613504029e+002 1.990778235619e+002 1.991752824618e+002 1.993120018265e+002 1.992537285258e+002 1.975540941526e+002 1.973179296614e+002 1.970748878422e+002 1.985049963995e+002 1.986745132518e+002 1.981201442762e+002 1.983197498764e+002 1.993119975874e+002 1.992537071265e+002 1.983197435079e+002 1.985054312719e+002 1.991757453694e+002 1.986747189270e+002 1.990783896450e+002 1.989621855635e+002 1.973168030525e+002 1.988279185905e+002 1.988271529426e+002 1.967708709541e+002 1.977128307811e+002 1.967577161057e+002 1.980783824026e+002 1.978529745377e+002 1.993555159839e+002 1.993551651860e+002 1.979380977108e+002 1.979556112043e+002 1.978675030133e+002 1.989146545939e+002 1.987325300854e+002 1.987731758892e+002 1.988787463540e+002 1.986142188510e+002 1.984387884005e+002 1.982481011451e+002 1.990068997227e+002 1.972287784629e+002 1.974670205042e+002 1.992779603363e+002 1.992066239367e+002 1.991163485756e+002 1.992773952983e+002 1.972285126574e+002 1.992066273627e+002 1.974669687670e+002 1.982481036072e+002 1.984387908852e+002 1.986108947028e+002 1.991163509542e+002 1.990069009491e+002 1.974373287293e+002 1.965993012546e+002 1.993683882828e+002 1.973925589912e+002 1.987537988966e+002 1.987522029480e+002 1.971956377347e+002 1.971952099942e+002 1.992175758117e+002 1.992174824828e+002 1.993649638035e+002 1.966892551291e+002 1.967144268567e+002 1.969734304531e+002 1.967287840723e+002 1.993704388028e+002 1.989276283506e+002 1.993704630923e+002 1.988516328041e+002 1.966395511828e+002 1.993384826827e+002 1.993385801610e+002 1.990220860149e+002 1.991290850887e+002 1.974365471095e+002 1.985907329451e+002 1.982203934370e+002 1.984130943408e+002 1.992854083381e+002 1.968530926900e+002 1.968600852762e+002 1.966051870151e+002 1.979886052238e+002 1.976972623824e+002 1.966123336061e+002 1.969204475180e+002 1.970834620447e+002 1.977562737082e+002 1.968867954666e+002 1.993495140830e+002 1.993495146838e+002 1.977323844368e+002 1.979656527077e+002 1.993440685620e+002 1.976436523305e+002 1.979711903016e+002 1.979352849998e+002 1.992661334735e+002 1.970277762775e+002 1.993209754288e+002 1.982623035135e+002 1.984514643999e+002 1.986262216722e+002 1.988705173319e+002 1.973642827789e+002 1.991578659566e+002 1.975988094328e+002 1.990566816190e+002 1.989225252733e+002 1.993335817427e+002 1.967886112496e+002 1.978948926536e+002 1.978196954911e+002 1.976672936353e+002 1.966400962205e+002 1.993705010830e+002 1.990046040345e+002 1.993705025587e+002 1.990892412702e+002 1.967812407349e+002 1.969538061748e+002 1.978401773007e+002 1.977572762055e+002 1.993651692597e+002 1.975410168935e+002 1.981286718533e+002 1.968567887931e+002 1.979927719743e+002 1.967023755318e+002 1.989847555571e+002 1.990976770499e+002 1.991915021473e+002 1.975100468290e+002 1.972727101073e+002 1.992013897866e+002 1.992965525264e+002 1.991098717753e+002 1.992323444424e+002 1.989992091616e+002 1.972442285091e+002 1.974821435735e+002 1.971486177519e+002 1.981815989183e+002 1.985579924533e+002 1.983769878530e+002 1.987225186858e+002 1.993017434710e+002 1.992394370256e+002 1.971244952318e+002 1.988004567863e+002 1.981577475729e+002 1.983548308360e+002 1.985372859911e+002 1.987037843671e+002 1.987831263692e+002 1.988271563611e+002 1.986745003637e+002 1.983197412010e+002 1.985049951210e+002 1.981201395776e+002 1.993120050323e+002 1.992537086445e+002 1.991759276503e+002 1.989620222520e+002 1.990786109811e+002 1.970755442442e+002 1.973162535340e+002 1.975528376063e+002 1.976941674139e+002 1.969094958796e+002 1.993648044496e+002 1.967781146727e+002 1.987806016223e+002 1.987248244730e+002 1.985601587535e+002 1.983797343776e+002 1.981844918495e+002 1.992306921182e+002 1.992953941823e+002 1.971535802142e+002 1.992025914803e+002 1.991110704614e+002 1.990004740123e+002 1.972405743258e+002 1.974796285622e+002 1.978343469406e+002 1.993500503672e+002 1.978088862522e+002 1.993530474447e+002 1.988244173812e+002 1.988289287038e+002 1.986794683322e+002 1.985103769532e+002 1.983256783364e+002 1.981264958158e+002 1.993110815063e+002 1.992524103822e+002 1.991734320823e+002 1.990755704520e+002 1.989643987941e+002 1.973230839851e+002 1.989604726566e+002 1.983234015231e+002 1.985016219030e+002 1.986775666900e+002 1.990773959510e+002 1.991749306988e+002 1.975550162161e+002 1.992538276170e+002 1.973188884824e+002 1.993120871261e+002 1.970744926943e+002 1.967354842541e+002 1.992454965561e+002 1.971039611635e+002 1.993061298785e+002 1.983411284925e+002 1.986923714783e+002 1.985260230396e+002 1.981430497526e+002 1.972906070796e+002 1.991851782749e+002 1.975274571094e+002 1.990899200158e+002 1.989752486959e+002 1.988117773823e+002 1.966682118697e+002 1.993704710770e+002 1.989439372066e+002 1.993572869292e+002 1.993629362360e+002 1.993629335400e+002 1.978017569718e+002 1.978878856256e+002 1.968454634063e+002 1.970804309080e+002 1.993411692142e+002 1.966725235788e+002 1.993494906449e+002 1.993493736970e+002 1.969427790332e+002 1.989218435672e+002 1.990443096889e+002 1.976235555132e+002 1.991476139032e+002 1.973906617298e+002 1.986279209456e+002 1.984517006126e+002 1.982643199897e+002 1.988701948292e+002 1.993260200084e+002 1.969962293406e+002 1.992739114781e+002 1.976660897070e+002 1.980185610414e+002 1.977804807848e+002 1.966350247396e+002 1.966208083119e+002 1.993693638037e+002 1.978556366365e+002 1.993693633648e+002 1.977987155460e+002 1.981306621073e+002 1.975419501401e+002 1.980534818338e+002 1.966611475033e+002 1.993283497227e+002 1.973828423085e+002 1.977390673416e+002 1.979208053938e+002 1.977752387287e+002 1.968344729890e+002 1.966314636274e+002 1.967441450903e+002 1.975908538730e+002 1.966302800947e+002 1.967849434465e+002 1.977949929195e+002 1.966193932101e+002 1.966122384559e+002 1.978630631526e+002 1.977206923781e+002 1.979273725611e+002 1.977526487065e+002 1.993607066809e+002 1.968891248206e+002 1.970187593988e+002 1.988428263029e+002 1.988776488875e+002 1.993281803759e+002 1.992771709278e+002 1.993178461155e+002 1.992615667493e+002 1.991479426370e+002 1.990447026776e+002 1.973899157367e+002 1.989481449244e+002 1.989157191946e+002 1.980921340305e+002 1.980494357794e+002 1.982938986898e+002 1.982501201642e+002 1.984406588458e+002 1.984811820915e+002 1.986527464524e+002 1.986158561763e+002 1.971350601868e+002 1.993675663302e+002 1.993675377794e+002 1.993692389045e+002 1.993692396753e+002 1.974983551941e+002 1.993687802466e+002 1.987085389686e+002 1.985425355238e+002 1.983605393564e+002 1.981638714055e+002 1.987959973122e+002 1.988574621927e+002 1.989347737468e+002 1.990551425825e+002 1.976023553521e+002 1.991565948175e+002 1.973675976246e+002 1.992387157032e+002 1.971268748179e+002 1.993012250378e+002 1.993012105055e+002 1.992386945616e+002 1.993219261036e+002 1.991565134522e+002 1.990550445824e+0