<?xml version="1.0"?>
<VTKFile type="UnstructuredGrid" version="0.1" byte_order="LittleEndian">
  <UnstructuredGrid>
    <Piece NumberOfPoints="2604" NumberOfCells="4910">
      <Points>
        <DataArray type="Float64" NumberOfComponents="3" format="ascii">
          0.000000000000e+000 0.000000000000e+000 0.000000000000e+000
          2.000000000000e+002 0.000000000000e+000 0.000000000000e+000
          2.000000000000e+002 2.000000000000e+001 0.000000000000e+000
          0.000000000000e+000 2.000000000000e+001 0.000000000000e+000
          1.492537313427e+000 0.000000000000e+000 0.000000000000e+000
          2.985074626854e+000 0.000000000000e+000 0.000000000000e+000
          4.477611940281e+000 0.000000000000e+000 0.000000000000e+000
          5.970149253708e+000 0.000000000000e+000 0.000000000000e+000
          7.462686567135e+000 0.000000000000e+000 0.000000000000e+000
          8.955223880561e+000 0.000000000000e+000 0.000000000000e+000
          1.044776119399e+001 0.000000000000e+000 0.000000000000e+000
          1.194029850741e+001 0.000000000000e+000 0.000000000000e+000
          1.343283582084e+001 0.000000000000e+000 0.000000000000e+000
          1.492537313427e+001 0.000000000000e+000 0.000000000000e+000
          1.641791044770e+001 0.000000000000e+000 0.000000000000e+000
          1.791044776112e+001 0.000000000000e+000 0.000000000000e+000
          1.940298507455e+001 0.000000000000e+000 0.000000000000e+000
          2.089552238798e+001 0.000000000000e+000 0.000000000000e+000
          2.238805970141e+001 0.000000000000e+000 0.000000000000e+000
          2.388059701484e+001 0.000000000000e+000 0.000000000000e+000
          2.537313432826e+001 0.000000000000e+000 0.000000000000e+000
          2.686567164169e+001 0.000000000000e+000 0.000000000000e+000
          2.835820895511e+001 0.000000000000e+000 0.000000000000e+000
          2.985074626854e+001 0.000000000000e+000 0.000000000000e+000
          3.134328358196e+001 0.000000000000e+000 0.000000000000e+000
          3.283582089539e+001 0.000000000000e+000 0.000000000000e+000
          3.432835820881e+001 0.000000000000e+000 0.000000000000e+000
          3.582089552224e+001 0.000000000000e+000 0.000000000000e+000
          3.731343283566e+001 0.000000000000e+000 0.000000000000e+000
          3.880597014909e+001 0.000000000000e+000 0.000000000000e+000
          4.029850746251e+001 0.000000000000e+000 0.000000000000e+000
          4.179104477594e+001 0.000000000000e+000 0.000000000000e+000
          4.328358208936e+001 0.000000000000e+000 0.000000000000e+000
          4.477611940279e+001 0.000000000000e+000 0.000000000000e+000
          4.626865671621e+001 0.000000000000e+000 0.000000000000e+000
          4.776119402964e+001 0.000000000000e+000 0.000000000000e+000
          4.925373134306e+001 0.000000000000e+000 0.000000000000e+000
          5.074626865649e+001 0.000000000000e+000 0.000000000000e+000
          5.223880596991e+001 0.000000000000e+000 0.000000000000e+000
          5.373134328334e+001 0.000000000000e+000 0.000000000000e+000
          5.522388059676e+001 0.000000000000e+000 0.000000000000e+000
          5.671641791019e+001 0.000000000000e+000 0.000000000000e+000
          5.820895522361e+001 0.000000000000e+000 0.000000000000e+000
          5.970149253704e+001 0.000000000000e+000 0.000000000000e+000
          6.119402985046e+001 0.000000000000e+000 0.000000000000e+000
          6.268656716389e+001 0.000000000000e+000 0.000000000000e+000
          6.417910447732e+001 0.000000000000e+000 0.000000000000e+000
          6.567164179075e+001 0.000000000000e+000 0.000000000000e+000
          6.716417910418e+001 0.000000000000e+000 0.000000000000e+000
          6.865671641761e+001 0.000000000000e+000 0.000000000000e+000
          7.014925373104e+001 0.000000000000e+000 0.000000000000e+000
          7.164179104447e+001 0.000000000000e+000 0.000000000000e+000
          7.313432835790e+001 0.000000000000e+000 0.000000000000e+000
          7.462686567133e+001 0.000000000000e+000 0.000000000000e+000
          7.611940298476e+001 0.000000000000e+000 0.000000000000e+000
          7.761194029819e+001 0.000000000000e+000 0.000000000000e+000
          7.910447761162e+001 0.000000000000e+000 0.000000000000e+000
          8.059701492505e+001 0.000000000000e+000 0.000000000000e+000
          8.208955223848e+001 0.000000000000e+000 0.000000000000e+000
          8.358208955191e+001 0.000000000000e+000 0.000000000000e+000
          8.507462686534e+001 0.000000000000e+000 0.000000000000e+000
          8.656716417877e+001 0.000000000000e+000 0.000000000000e+000
          8.805970149220e+001 0.000000000000e+000 0.000000000000e+000
          8.955223880563e+001 0.000000000000e+000 0.000000000000e+000
          9.104477611907e+001 0.000000000000e+000 0.000000000000e+000
          9.253731343250e+001 0.000000000000e+000 0.000000000000e+000
          9.402985074593e+001 0.000000000000e+000 0.000000000000e+000
          9.552238805936e+001 0.000000000000e+000 0.000000000000e+000
          9.701492537279e+001 0.000000000000e+000 0.000000000000e+000
          9.850746268622e+001 0.000000000000e+000 0.000000000000e+000
          9.999999999965e+001 0.000000000000e+000 0.000000000000e+000
          1.014925373131e+002 0.000000000000e+000 0.000000000000e+000
          1.029850746265e+002 0.000000000000e+000 0.000000000000e+000
          1.044776119399e+002 0.000000000000e+000 0.000000000000e+000
          1.059701492534e+002 0.000000000000e+000 0.000000000000e+000
          1.074626865668e+002 0.000000000000e+000 0.000000000000e+000
          1.089552238802e+002 0.000000000000e+000 0.000000000000e+000
          1.104477611937e+002 0.000000000000e+000 0.000000000000e+000
          1.119402985071e+002 0.000000000000e+000 0.000000000000e+000
          1.134328358205e+002 0.000000000000e+000 0.000000000000e+000
          1.149253731340e+002 0.000000000000e+000 0.000000000000e+000
          1.164179104474e+002 0.000000000000e+000 0.000000000000e+000
          1.179104477608e+002 0.000000000000e+000 0.000000000000e+000
          1.194029850742e+002 0.000000000000e+000 0.000000000000e+000
          1.208955223877e+002 0.000000000000e+000 0.000000000000e+000
          1.223880597011e+002 0.000000000000e+000 0.000000000000e+000
          1.238805970145e+002 0.000000000000e+000 0.000000000000e+000
          1.253731343280e+002 0.000000000000e+000 0.000000000000e+000
          1.268656716414e+002 0.000000000000e+000 0.000000000000e+000
          1.283582089548e+002 0.000000000000e+000 0.000000000000e+000
          1.298507462683e+002 0.000000000000e+000 0.000000000000e+000
          1.313432835817e+002 0.000000000000e+000 0.000000000000e+000
          1.328358208952e+002 0.000000000000e+000 0.000000000000e+000
          1.343283582086e+002 0.000000000000e+000 0.000000000000e+000
          1.358208955220e+002 0.000000000000e+000 0.000000000000e+000
          1.373134328355e+002 0.000000000000e+000 0.000000000000e+000
          1.388059701489e+002 0.000000000000e+000 0.000000000000e+000
          1.402985074624e+002 0.000000000000e+000 0.000000000000e+000
          1.417910447758e+002 0.000000000000e+000 0.000000000000e+000
          1.432835820892e+002 0.000000000000e+000 0.000000000000e+000
          1.447761194027e+002 0.000000000000e+000 0.000000000000e+000
          1.462686567161e+002 0.000000000000e+000 0.000000000000e+000
          1.477611940296e+002 0.000000000000e+000 0.000000000000e+000
          1.492537313430e+002 0.000000000000e+000 0.000000000000e+000
          1.507462686564e+002 0.000000000000e+000 0.000000000000e+000
          1.522388059699e+002 0.000000000000e+000 0.000000000000e+000
          1.537313432833e+002 0.000000000000e+000 0.000000000000e+000
          1.552238805968e+002 0.000000000000e+000 0.000000000000e+000
          1.567164179102e+002 0.000000000000e+000 0.000000000000e+000
          1.582089552237e+002 0.000000000000e+000 0.000000000000e+000
          1.597014925371e+002 0.000000000000e+000 0.000000000000e+000
          1.611940298505e+002 0.000000000000e+000 0.000000000000e+000
          1.626865671640e+002 0.000000000000e+000 0.000000000000e+000
          1.641791044774e+002 0.000000000000e+000 0.000000000000e+000
          1.656716417909e+002 0.000000000000e+000 0.000000000000e+000
          1.671641791043e+002 0.000000000000e+000 0.000000000000e+000
          1.686567164177e+002 0.000000000000e+000 0.000000000000e+000
          1.701492537312e+002 0.000000000000e+000 0.000000000000e+000
          1.716417910446e+002 0.000000000000e+000 0.000000000000e+000
          1.731343283581e+002 0.000000000000e+000 0.000000000000e+000
          1.746268656715e+002 0.000000000000e+000 0.000000000000e+000
          1.761194029849e+002 0.000000000000e+000 0.000000000000e+000
          1.776119402984e+002 0.000000000000e+000 0.000000000000e+000
          1.791044776118e+002 0.000000000000e+000 0.000000000000e+000
          1.805970149253e+002 0.000000000000e+000 0.000000000000e+000
          1.820895522387e+002 0.000000000000e+000 0.000000000000e+000
          1.835820895521e+002 0.000000000000e+000 0.000000000000e+000
          1.850746268656e+002 0.000000000000e+000 0.000000000000e+000
          1.865671641790e+002 0.000000000000e+000 0.000000000000e+000
          1.880597014925e+002 0.000000000000e+000 0.000000000000e+000
          1.895522388059e+002 0.000000000000e+000 0.000000000000e+000
          1.910447761194e+002 0.000000000000e+000 0.000000000000e+000
          1.925373134328e+002 0.000000000000e+000 0.000000000000e+000
          1.940298507462e+002 0.000000000000e+000 0.000000000000e+000
          1.955223880597e+002 0.000000000000e+000 0.000000000000e+000
          1.970149253731e+002 0.000000000000e+000 0.000000000000e+000
          1.985074626866e+002 0.000000000000e+000 0.000000000000e+000
          2.000000000000e+002 1.428571428570e+000 0.000000000000e+000
          2.000000000000e+002 2.857142857140e+000 0.000000000000e+000
[...]
      <PointData Scalars="MEAN_PRESSURE">
        <DataArray type="Float64" Name="MEAN_PRESSURE" format="ascii">
          2.000000000000e+002 1.990163909203e+002 1.990163894812e+002 2.000000000000e+002 1.995191510861e+002 1.985414648079e+002 1.978734291131e+002 1.974001161353e+002 1.970808798557e+002 1.968803393617e+002 1.967602528658e+002 1.966994729606e+002 1.966773392799e+002 1.966801884570e+002 1.966976342728e+002 1.967235635005e+002 1.967536734075e+002 1.967855018348e+002 1.968177037001e+002 1.968496258819e+002 1.968810404682e+002 1.969118686512e+002 1.969422170069e+002 1.969721839238e+002 1.970018628403e+002 1.970313242456e+002 1.970606292070e+002 1.970898154476e+002 1.971189042070e+002 1.971479112664e+002 1.971768427635e+002 1.972057018505e+002 1.972344843914e+002 1.972631885703e+002 1.972918097430e+002 1.973203420064e+002 1.973487822656e+002 1.973771226209e+002 1.974053597745e+002 1.974334897281e+002 1.974615039794e+002 1.974893956106e+002 1.975171651879e+002 1.975448041341e+002 1.975723095699e+002 1.975996754097e+002 1.976268997014e+002 1.976539692483e+002 1.976808911607e+002 1.977076510803e+002 1.977342464758e+002 1.977606746927e+002 1.977869345646e+002 1.978130078688e+002 1.978389040821e+002 1.978646145938e+002 1.978901371136e+002 1.979154601766e+002 1.979405824720e+002 1.979655107494e+002 1.979902202192e+002 1.980147184869e+002 1.980390003226e+002 1.980630657910e+002 1.980869045938e+002 1.981105145752e+002 1.981338925568e+002 1.981570321234e+002 1.981799337813e+002 1.982025881105e+002 1.982249995600e+002 1.982471541878e+002 1.982690567253e+002 1.982906990941e+002 1.983120777006e+002 1.983331930885e+002 1.983540358215e+002 1.983746108680e+002 1.983949074130e+002 1.984149258448e+002 1.984346576460e+002 1.984541086358e+002 1.984732678578e+002 1.984921380771e+002 1.985107116236e+002 1.985289869869e+002 1.985469633576e+002 1.985646360370e+002 1.985820023980e+002 1.985990603943e+002 1.986158073413e+002 1.986322412297e+002 1.986483596933e+002 1.986641579040e+002 1.986796319798e+002 1.986947867615e+002 1.987096121798e+002 1.987241101376e+002 1.987382789064e+002 1.987521174934e+002 1.987656204162e+002 1.987787840119e+002 1.987916136854e+002 1.988040992990e+002 1.988162433504e+002 1.988280445767e+002 1.988395024571e+002 1.988506117630e+002 1.988613691539e+002 1.988717806737e+002 1.988818361980e+002 1.988915385468e+002 1.989008876617e+002 1.989098842136e+002 1.989185209190e+002 1.989267957229e+002 1.989347158030e+002 1.989422708418e+002 1.989494640887e+002 1.989562954802e+002 1.989627664141e+002 1.989688723242e+002 1.989746093980e+002 1.989799798719e+002 1.989849824966e+002 1.989896138182e+002 1.989938808365e+002 1.989977827183e+002 1.990013090050e+002 1.990044729219e+002 1.990072712383e+002 1.990096796064e+002 1.990117226987e+002 1.990133959933e+002 1.990147184354e+002 1.990156120081e+002 1.990161871646e+002 1.990163710155e+002 1.990163524808e+002 1.990163927334e+002 1.990163846566e+002 1.990163806982e+002 1.990163734348e+002 1.990163686683e+002 1.990163719731e+002 1.990163723543e+002 1.990163632639e+002 1.990163883853e+002 1.990163501971e+002 1.990163694271e+002 1.990161858682e+002 1.990156109784e+002 1.990147175441e+002 1.990133951141e+002 1.990117220198e+002 1.990096801062e+002 1.990072728790e+002 1.990044747950e+002 1.990013107576e+002 1.989977843481e+002 1.989938812297e+002 1.989896145036e+002 1.989849822778e+002 1.989799786843e+002 1.989746085174e+002 1.989688705614e+002 1.989627642171e+002 1.989563001850e+002 1.989494679469e+002 1.989422718206e+002 1.989347155647e+002 1.989267968745e+002 1.989185178633e+002 1.989098836972e+002 1.989008902648e+002 1.988915420574e+002 1.988818361743e+002 1.988717795827e+002 1.988613671079e+002 1.988506105606e+002 1.988395008322e+002 1.988280451979e+002 1.988162445255e+002 1.988040969432e+002 1.987916121589e+002 1.987787825118e+002 1.987656200019e+002 1.987521165644e+002 1.987382797956e+002 1.987241111272e+002 1.987096096582e+002 1.986947853216e+002 1.986796309959e+002 1.986641580588e+002 1.986483594743e+002 1.986322393133e+002 1.986158081990e+002 1.985990609990e+002 1.985820026911e+002 1.985646360451e+002 1.985469642703e+002 1.985289901410e+002 1.985107141879e+002 1.984921379089e+002 1.984732708542e+002 1.984541088093e+002 1.984346582964e+002 1.984149231587e+002 1.983949084587e+002 1.983746106085e+002 1.983540388213e+002 1.983331942954e+002 1.983120786326e+002 1.982906973886e+002 1.982690549510e+002 1.982471551939e+002 1.982249985661e+002 1.982025900600e+002 1.981799327371e+002 1.981570320342e+002 1.981338906382e+002 1.981105134334e+002 1.980869048438e+002 1.980630661196e+002 1.980390025394e+002 1.980147176161e+002 1.979902169570e+002 1.979655036941e+002 1.979405827948e+002 1.979154596922e+002 1.978901358853e+002 1.978646165648e+002 1.978389054484e+002 1.978130085070e+002 1.977869290721e+002 1.977606730034e+002 1.977342445636e+002 1.977076446668e+002 1.976808861000e+002 1.976539680280e+002 1.976268940682e+002 1.975996727580e+002 1.975723031058e+002 1.975447942712e+002 1.975171523098e+002 1.974893787943e+002 1.974614798491e+002 1.974334610289e+002 1.974053259621e+002 1.973770789827e+002 1.973487271833e+002 1.973202725531e+002 1.972917209199e+002 1.972630765460e+002 1.972343433195e+002 1.972055229502e+002 1.971766167683e+002 1.971476253126e+002 1.971185414325e+002 1.970893560199e+002 1.970600502479e+002 1.970305941228e+002 1.970009386893e+002 1.969710158173e+002 1.969407348733e+002 1.969099835630e+002 1.968786476045e+002 1.968466260022e+002 1.968139449199e+002 1.967807781769e+002 1.967477670894e+002 1.967162335949e+002 1.966886115627e+002 1.966688089662e+002 1.966640133073e+002 1.966840133914e+002 1.967432088715e+002 1.968584904896e+002 1.970611255571e+002 1.973824376219e+002 1.978540004486e+002 1.985288716060e+002 1.995027734321e+002 2.000000000000e+002 2.000000000000e+002 2.000000000000e+002 2.000000000000e+002 2.000000000000e+002 2.000000000000e+002 2.000000000000e+002 2.000000000000e+002 2.000000000000e+002 2.000000000000e+002 2.000000000000e+002 2.000000000000e+002 2.000000000000e+002 1.990080052833e+002 1.967861324764e+002 1.989826850431e+002 1.989386815910e+002 1.988762168724e+002 1.987971114460e+002 1.987013053358e+002 1.969262435077e+002 1.985905634740e+002 1.971350653123e+002 1.973363213373e+002 1.975344345986e+002 1.978237693780e+002 1.980024893384e+002 1.981685066758e+002 1.983226625858e+002 1.984637170398e+002 1.967377031760e+002 1.976808897444e+002 1.985289830335e+002 1.985281499914e+002 1.983949078998e+002 1.982471545595e+002 1.980869053692e+002 1.979154611004e+002 1.989637180940e+002 1.989112166724e+002 1.988408168533e+002 1.979154572852e+002 1.980826455651e+002 1.982489314887e+002 1.983912854945e+002 1.987537143777e+002 1.986483535240e+002 1.970296785592e+002 1.972310651510e+002 1.974366437011e+002 1.986490996469e+002 1.987522486897e+002 1.988396095866e+002 1.989098749291e+002 1.989627572129e+002 1.974331795471e+002 1.972340820678e+002 1.970307550218e+002 1.989973928969e+002 1.989971586663e+002 1.976230117260e+002 1.977413324389e+002 1.966714734752e+002 1.968190979940e+002 1.990134510813e+002 1.973942362592e+002 1.990134974317e+002 1.973956978904e+002 1.966730520203e+002 1.968448735751e+002 1.975934497902e+002 1.977644308203e+002 1.989825316508e+002 1.984637195203e+002 1.989385322930e+002 1.983226691388e+002 1.981685131030e+002 1.980024942971e+002 1.978314763958e+002 1.985903987750e+002 1.988770233571e+002 1.987990036512e+002 1.987035554485e+002 1.971328319310e+002 1.973320294222e+002 1.985907286570e+002 1.987022332412e+002 1.987978927760e+002 1.988768462126e+002 1.980024512024e+002 1.981684715587e+002 1.983226284242e+002 1.989385323528e+002 1.984640651834e+002 1.989825255292e+002 1.975309927445e+002 1.973345192569e+002 1.971331397122e+002 1.969256565539e+002 1.990069511767e+002 1.990071253669e+002 1.967390490697e+002 1.969426329762e+002 1.978441627863e+002 1.975097854065e+002 1.990148451972e+002 1.979293922911e+002 1.967409897449e+002 1.967942473774e+002 1.967354685906e+002 1.976654763869e+002 1.976089697359e+002 1.977526178242e+002 1.966696712029e+002 1.968240535879e+002 1.976814952684e+002 1.990002363074e+002 1.988495364166e+002 1.989012109444e+002 1.987643120701e+002 1.989565249856e+002 1.986626115404e+002 1.984115663476e+002 1.981065508146e+002 1.979363648093e+002 1.982669171847e+002 1.970592514175e+002 1.974080879230e+002 1.972084255210e+002 1.985124905819e+002 1.976808875805e+002 1.990154388215e+002 1.983990408257e+002 1.990154387947e+002 1.983733412787e+002 1.984220484199e+002 1.982768638984e+002 1.981189449235e+002 1.979495674629e+002 1.986263536961e+002 1.985033137599e+002 1.985533469903e+002 1.987332097408e+002 1.974715295668e+002 1.988238285099e+002 1.972733981883e+002 1.988975526103e+002 1.970706438582e+002 1.989538676231e+002 1.989536074285e+002 1.989713855617e+002 1.988971916421e+002 1.989216970192e+002 1.988227330376e+002 1.988540948291e+002 1.987318919796e+002 1.987698785046e+002 1.970750650314e+002 1.986690586028e+002 1.986263075133e+002 1.972761764036e+002 1.971964080066e+002 1.979496960240e+002 1.981198976178e+002 1.982786014720e+002 1.980552846213e+002 1.982176621292e+002 1.984211647352e+002 1.983679648637e+002 1.974033276113e+002 1.985533939622e+002 1.985068187322e+002 1.989709749877e+002 1.969902759528e+002 1.989202501806e+002 1.971994491103e+002 1.988529010998e+002 1.973993826262e+002 1.987684157567e+002 1.978768477855e+002 1.980520128898e+002 1.982147111773e+002 1.983648031023e+002 1.986674394491e+002 1.967238882620e+002 1.989921321216e+002 1.989919423203e+002 1.977694521204e+002 1.975876157471e+002 1.968615583722e+002 1.985518176524e+002 1.982183193177e+002 1.983689143812e+002 1.980563979718e+002 1.978773670186e+002 1.969925855988e+002 1.972709909369e+002 1.989706132226e+002 1.974698397593e+002 1.989208140181e+002 1.988248396854e+002 1.986277691179e+002 1.987344250337e+002 1.970011342503e+002 1.990014379703e+002 1.990014372979e+002 1.977228692152e+002 1.966640722750e+002 1.989925344409e+002 1.985662170370e+002 1.986145621123e+002 1.987230130366e+002 1.974898857919e+002 1.988153268985e+002 1.972939353200e+002 1.980371966542e+002 1.982009046896e+002 1.983524909674e+002 1.989747149447e+002 1.969708393744e+002 1.989274143981e+002 1.968023233107e+002 1.978667871838e+002 1.990116367776e+002 1.990114082377e+002 1.989890669900e+002 1.978933816158e+002 1.974580284466e+002 1.977900094559e+002 1.975682387380e+002 1.970529473334e+002 1.968842630795e+002 1.966804276539e+002 1.966858052543e+002 1.968849509329e+002 1.984337298854e+002 1.982900182162e+002 1.981331540561e+002 1.979647183243e+002 1.988920345177e+002 1.970879970571e+002 1.989498435912e+002 1.984913673965e+002 1.986792166273e+002 1.988911584295e+002 1.987793408405e+002 1.989491906637e+002 1.988618203073e+002 1.984360659656e+002 1.982899582983e+002 1.981348606463e+002 1.979665388642e+002 1.970909041854e+002 1.973779144685e+002 1.971755677679e+002 1.971754724771e+002 1.988618132376e+002 1.973759066301e+002 1.987793241209e+002 1.986802681789e+002 1.984913533050e+002 1.990155336284e+002 1.990155886712e+002 1.984856390855e+002 1.983881634287e+002 1.990120549545e+002 1.971102466075e+002 1.990044469070e+002 1.990049638858e+002 1.968964733579e+002 1.990102156133e+002 1.967213917328e+002 1.971485084228e+002 1.975612208373e+002 1.977979901090e+002 1.969022599878e+002 1.966886837748e+002 1.975425411113e+002 1.967875676251e+002 1.967821442183e+002 1.978162118579e+002 1.967044320223e+002 1.976114357444e+002 1.977199693202e+002 1.966860608331e+002 1.972851402701e+002 1.986205655235e+002 1.987274419223e+002 1.988190239079e+002 1.989258829275e+002 1.989740322417e+002 1.985596062184e+002 1.978700203373e+002 1.980439462201e+002 1.982071967197e+002 1.983582714890e+002 1.976403670033e+002 1.967877036824e+002 1.977255006740e+002 1.976329919503e+002 1.989901895554e+002 1.990095199144e+002 1.969792433171e+002 1.974767756133e+002 1.969464519983e+002 1.972833213787e+002 1.990130438223e+002 1.966969271420e+002 1.984531930183e+002 1.983110711849e+002 1.981559432628e+002 1.979890545866e+002 1.985986444783e+002 1.985824126648e+002 1.984744543416e+002 1.987102899276e+002 1.988046665607e+002 1.975158492539e+002 1.988822892242e+002 1.973189335337e+002 1.989426059795e+002 1.971171847005e+002 1.989798505966e+002 1.989423483545e+002 1.988824487274e+002 1.988050458344e+002 1.987107406075e+002 1.971170624478e+002 1.973181135345e+002 1.979899528802e+002 1.981557615088e+002 1.983109037869e+002 1.989797276065e+002 1.969422144105e+002 1.978413600380e+002 1.989829056533e+002 1.990058622764e+002 1.990058647375e+002 1.969567466453e+002 1.968767423032e+002 1.967078172931e+002 1.977100970505e+002 1.989661937449e+002 1.989147155709e+002 1.988331824288e+002 1.987444757092e+002 1.986380257868e+002 1.970144932412e+002 1.972503469176e+002 1.974490318719e+002 1.983843261665e+002 1.980744651158e+002 1.979024531671e+002 1.982329344207e+002 1.985405841083e+002 1.989952598849e+002 1.990139004289e+002 1.990139015579e+002 1.989372389495e+002 1.987998878543e+002 1.987046058939e+002 1.973300010560e+002 1.980066560554e+002 1.981724025483e+002 1.983262535816e+002 1.975423747290e+002 1.976522671829e+002 1.985937456503e+002 1.985874705714e+002 1.978308823154e+002 1.990159610621e+002 1.989670498004e+002 1.974964868604e+002 1.978587586566e+002 1.986477595610e+002 1.987516020543e+002 1.988390755047e+002 1.989627595750e+002 1.989098975768e+002 1.974345029668e+002 1.972354156852e+002 1.970306139728e+002 1.982471533057e+002 1.983949070217e+002 1.979154574589e+002 1.980869031656e+002 1.989627557532e+002 1.989098781698e+002 1.980868982250e+002 1.982475316010e+002 1.988394923788e+002 1.983950877743e+002 1.987521086290e+002 1.986485017004e+002 1.972344778363e+002 1.985296573223e+002 1.985289822266e+002 1.967677787779e+002 1.975687452263e+002 1.967570614240e+002 1.978797307181e+002 1.976876305763e+002 1.990023792118e+002 1.990020593022e+002 1.977600372208e+002 1.977749544484e+002 1.976999772546e+002 1.986063278834e+002 1.984457459898e+002 1.984814505560e+002 1.985745422442e+002 1.983422226342e+002 1.981897423235e+002 1.980252264172e+002 1.986882823508e+002 1.971604016713e+002 1.973610273871e+002 1.989318525056e+002 1.988673253132e+002 1.987861138761e+002 1.989313400088e+002 1.971601583060e+002 1.988673283448e+002 1.973609801204e+002 1.980252282966e+002 1.981897442618e+002 1.983393226578e+002 1.987861159461e+002 1.986882833873e+002 1.976644425104e+002 1.966721291172e+002 1.990141240567e+002 1.976216152661e+002 1.984644203153e+002 1.984630184359e+002 1.971325034547e+002 1.971321335376e+002 1.988772111632e+002 1.988771268422e+002 1.990109984024e+002 1.967028527776e+002 1.968706448600e+002 1.969441644493e+002 1.967328305541e+002 1.990159960244e+002 1.990578800260e+002 1.990160181988e+002 1.989913845867e+002 1.966753539632e+002 1.989868551959e+002 1.989869439871e+002 1.987018174547e+002 1.987975424497e+002 1.973353325533e+002 1.983217407943e+002 1.980014170667e+002 1.981675043815e+002 1.989386082383e+002 1.968393265309e+002 1.968455347476e+002 1.966896966688e+002 1.978030756267e+002 1.975555603160e+002 1.966986888595e+002 1.968982590889e+002 1.970379237230e+002 1.976055581878e+002 1.968688830489e+002 1.989969068368e+002 1.989969073787e+002 1.975853099230e+002 1.977835102423e+002 1.989919439442e+002 1.975101918544e+002 1.977882299836e+002 1.977576420738e+002 1.989211322944e+002 1.969906215723e+002 1.989709196571e+002 1.980374396543e+002 1.982007219377e+002 1.983526987566e+002 1.985672670243e+002 1.972744461024e+002 1.988234027716e+002 1.974722783542e+002 1.987326981921e+002 1.986133036251e+002 1.989823921891e+002 1.967830826313e+002 1.977232667963e+002 1.976593649663e+002 1.975301928920e+002 1.966735807972e+002 1.990160528840e+002 1.991258924069e+002 1.990160542335e+002 1.991993795516e+002 1.969673862222e+002 1.969272178024e+002 1.976767587354e+002 1.976064078869e+002 1.990111859108e+002 1.974234626763e+002 1.979227588106e+002 1.968426044254e+002 1.978066295457e+002 1.967135886990e+002 1.986685687430e+002 1.987693771561e+002 1.988536879255e+002 1.973973207555e+002 1.971973567897e+002 1.988626034702e+002 1.989487233308e+002 1.987803059835e+002 1.988905537773e+002 1.986814327529e+002 1.971733999177e+002 1.973737815762e+002 1.970929102170e+002 1.979681185447e+002 1.982932248960e+002 1.981362924673e+002 1.984369628587e+002 1.989534378340e+002 1.988969666391e+002 1.970725435798e+002 1.985054576467e+002 1.979476686815e+002 1.981171621423e+002 1.982752122167e+002 1.984205397570e+002 1.984902028897e+002 1.985289850490e+002 1.983948965817e+002 1.980868964192e+002 1.982471523068e+002 1.979154538851e+002 1.989627624552e+002 1.989098795162e+002 1.988396565241e+002 1.986483563295e+002 1.987523066983e+002 1.970312069832e+002 1.972340114176e+002 1.974334426510e+002 1.975529410892e+002 1.968887941135e+002 1.990108529794e+002 1.969622546064e+002 1.984879819588e+002 1.984389854472e+002 1.982951104987e+002 1.981386655159e+002 1.979706004105e+002 1.988890604440e+002 1.989476716313e+002 1.970970762641e+002 1.988636876892e+002 1.987813808915e+002 1.986825595058e+002 1.971703192602e+002 1.973716594046e+002 1.976718066556e+002 1.989973957372e+002 1.976501895624e+002 1.990001281923e+002 1.985265701959e+002 1.985305479396e+002 1.983992441143e+002 1.982518266409e+002 1.980920143909e+002 1.979208957665e+002 1.989619229830e+002 1.989087043369e+002 1.988374095010e+002 1.987495862049e+002 1.986504682684e+002 1.972397639410e+002 1.986469795728e+002 1.980900510761e+002 1.982442234635e+002 1.983975793179e+002 1.987512195856e+002 1.988387588731e+002 1.974352819549e+002 1.989099873668e+002 1.972362238523e+002 1.989628371594e+002 1.970302826126e+002 1.967386323917e+002 1.989024476739e+002 1.970552168435e+002 1.989574228815e+002 1.981053384672e+002 1.984105411008e+002 1.982654198829e+002 1.979350738133e+002 1.972124217600e+002 1.988479890279e+002 1.974120151551e+002 1.987624297805e+002 1.986601129556e+002 1.985154293787e+002 1.968127304851e+002 1.990160254895e+002 1.990706551454e+002 1.990039943592e+002 1.990091481517e+002 1.990091456960e+002 1.976441384533e+002 1.977173074981e+002 1.968325815959e+002 1.970353547868e+002 1.989893023974e+002 1.968258410329e+002 1.989968855077e+002 1.989967788997e+002 1.969177379593e+002 1.986126992748e+002 1.987216468090e+002 1.974931962227e+002 1.988141851538e+002 1.972966664863e+002 1.983541829211e+002 1.982009272179e+002 1.980391747481e+002 1.985669822296e+002 1.989755092026e+002 1.969637201950e+002 1.989281813334e+002 1.975291736610e+002 1.978286295885e+002 1.976260858021e+002 1.966766286410e+002 1.967212754876e+002 1.990150145939e+002 1.980725122130e+002 1.990150141950e+002 1.980209680291e+002 1.979244624918e+002 1.974242504615e+002 1.978584481093e+002 1.966866589840e+002 1.989776293973e+002 1.976108921961e+002 1.975909738426e+002 1.977453149910e+002 1.976216395366e+002 1.968229489930e+002 1.966688282432e+002 1.967455901752e+002 1.974655561655e+002 1.966680194464e+002 1.967799683033e+002 1.976383987110e+002 1.967415490753e+002 1.966756143888e+002 1.976962040947e+002 1.975754046685e+002 1.977509047136e+002 1.976024842822e+002 1.990071138843e+002 1.970886039004e+002 1.969830028463e+002 1.985428086274e+002 1.985735715881e+002 1.989774752286e+002 1.989311365240e+002 1.989680732851e+002 1.989169949341e+002 1.988144801617e+002 1.987219970813e+002 1.972960405189e+002 1.986360309285e+002 1.986072710746e+002 1.978914896951e+002 1.978549924420e+002 1.980646320440e+002 1.980269621005e+002 1.981913619332e+002 1.982264854679e+002 1.983758708189e+002 1.983436511638e+002 1.973628033121e+002 1.990133737446e+002 1.990133476923e+002 1.990149005680e+002 1.990149012738e+002 1.977296699136e+002 1.990144818613e+002 1.984247055099e+002 1.982797762971e+002 1.981220884478e+002 1.979529168115e+002 1.985015303685e+002 1.985557313360e+002 1.986241651606e+002 1.987313226136e+002 1.974752745516e+002 1.988222592985e+002 1.972772362027e+002 1.988963141166e+002 1.970745459523e+002 1.989529668002e+002 1.989529535671e+002 1.988962949307e+002 1.989717843942e+002 1.988221861496e+002 1.987312351015e+0