<?xml version="1.0"?>
<VTKFile type="UnstructuredGrid" version="0.1" byte_order="LittleEndian">
  <UnstructuredGrid>
    <Piece NumberOfPoints="2604" NumberOfCells="4910">
      <Points>
        <DataArray type="Float64" NumberOfComponents="3" format="ascii">
          0.000000000000e+000 0.000000000000e+000 0.000000000000e+000
          2.000000000000e+002 0.000000000000e+000 0.000000000000e+000
          2.000000000000e+002 2.000000000000e+001 0.000000000000e+000
          0.000000000000e+000 2.000000000000e+001 0.000000000000e+000
          1.492537313427e+000 0.000000000000e+000 0.000000000000e+000
          2.985074626854e+000 0.000000000000e+000 0.000000000000e+000
          4.477611940281e+000 0.000000000000e+000 0.000000000000e+000
          5.970149253708e+000 0.000000000000e+000 0.000000000000e+000
          7.462686567135e+000 0.000000000000e+000 0.000000000000e+000
          8.955223880561e+000 0.000000000000e+000 0.000000000000e+000
          1.044776119399e+001 0.000000000000e+000 0.000000000000e+000
          1.194029850741e+001 0.000000000000e+000 0.000000000000e+000
          1.343283582084e+001 0.000000000000e+000 0.000000000000e+000
          1.492537313427e+001 0.000000000000e+000 0.000000000000e+000
          1.641791044770e+001 0.000000000000e+000 0.000000000000e+000
          1.791044776112e+001 0.000000000000e+000 0.000000000000e+000
          1.940298507455e+001 0.000000000000e+000 0.000000000000e+000
          2.089552238798e+001 0.000000000000e+000 0.000000000000e+000
          2.238805970141e+001 0.000000000000e+000 0.000000000000e+000
          2.388059701484e+001 0.000000000000e+000 0.000000000000e+000
          2.537313432826e+001 0.000000000000e+000 0.000000000000e+000
          2.686567164169e+001 0.000000000000e+000 0.000000000000e+000
          2.835820895511e+001 0.000000000000e+000 0.000000000000e+000
          2.985074626854e+001 0.000000000000e+000 0.000000000000e+000
          3.134328358196e+001 0.000000000000e+000 0.000000000000e+000
          3.283582089539e+001 0.000000000000e+000 0.000000000000e+000
          3.432835820881e+001 0.000000000000e+000 0.000000000000e+000
          3.582089552224e+001 0.000000000000e+000 0.000000000000e+000
          3.731343283566e+001 0.000000000000e+000 0.000000000000e+000
          3.880597014909e+001 0.000000000000e+000 0.000000000000e+000
          4.029850746251e+001 0.000000000000e+000 0.000000000000e+000
          4.179104477594e+001 0.000000000000e+000 0.000000000000e+000
          4.328358208936e+001 0.000000000000e+000 0.000000000000e+000
          4.477611940279e+001 0.000000000000e+000 0.000000000000e+000
          4.626865671621e+001 0.000000000000e+000 0.000000000000e+000
          4.776119402964e+001 0.000000000000e+000 0.000000000000e+000
          4.925373134306e+001 0.000000000000e+000 0.000000000000e+000
          5.074626865649e+001 0.000000000000e+000 0.000000000000e+000
          5.223880596991e+001 0.000000000000e+000 0.000000000000e+000
          5.373134328334e+001 0.000000000000e+000 0.000000000000e+000
          5.522388059676e+001 0.000000000000e+000 0.000000000000e+000
          5.671641791019e+001 0.000000000000e+000 0.000000000000e+000
          5.820895522361e+001 0.000000000000e+000 0.000000000000e+000
          5.970149253704e+001 0.000000000000e+000 0.000000000000e+000
          6.119402985046e+001 0.000000000000e+000 0.000000000000e+000
          6.268656716389e+001 0.000000000000e+000 0.000000000000e+000
          6.417910447732e+001 0.000000000000e+000 0.000000000000e+000
          6.567164179075e+001 0.000000000000e+000 0.000000000000e+000
          6.716417910418e+001 0.000000000000e+000 0.000000000000e+000
          6.865671641761e+001 0.000000000000e+000 0.000000000000e+000
          7.014925373104e+001 0.000000000000e+000 0.000000000000e+000
          7.164179104447e+001 0.000000000000e+000 0.000000000000e+000
          7.313432835790e+001 0.000000000000e+000 0.000000000000e+000
          7.462686567133e+001 0.000000000000e+000 0.000000000000e+000
          7.611940298476e+001 0.000000000000e+000 0.000000000000e+000
          7.761194029819e+001 0.000000000000e+000 0.000000000000e+000
          7.910447761162e+001 0.000000000000e+000 0.000000000000e+000
          8.059701492505e+001 0.000000000000e+000 0.000000000000e+000
          8.208955223848e+001 0.000000000000e+000 0.000000000000e+000
          8.358208955191e+001 0.000000000000e+000 0.000000000000e+000
          8.507462686534e+001 0.000000000000e+000 0.000000000000e+000
          8.656716417877e+001 0.000000000000e+000 0.000000000000e+000
          8.805970149220e+001 0.000000000000e+000 0.000000000000e+000
          8.955223880563e+001 0.000000000000e+000 0.000000000000e+000
          9.104477611907e+001 0.000000000000e+000 0.000000000000e+000
          9.253731343250e+001 0.000000000000e+000 0.000000000000e+000
          9.402985074593e+001 0.000000000000e+000 0.000000000000e+000
          9.552238805936e+001 0.000000000000e+000 0.000000000000e+000
          9.701492537279e+001 0.000000000000e+000 0.000000000000e+000
          9.850746268622e+001 0.000000000000e+000 0.000000000000e+000
          9.999999999965e+001 0.000000000000e+000 0.000000000000e+000
          1.014925373131e+002 0.000000000000e+000 0.000000000000e+000
          1.029850746265e+002 0.000000000000e+000 0.000000000000e+000
          1.044776119399e+002 0.000000000000e+000 0.000000000000e+000
          1.059701492534e+002 0.000000000000e+000 0.000000000000e+000
          1.074626865668e+002 0.000000000000e+000 0.000000000000e+000
          1.089552238802e+002 0.000000000000e+000 0.000000000000e+000
          1.104477611937e+002 0.000000000000e+000 0.000000000000e+000
          1.119402985071e+002 0.000000000000e+000 0.000000000000e+000
          1.134328358205e+002 0.000000000000e+000 0.000000000000e+000
          1.149253731340e+002 0.000000000000e+000 0.000000000000e+000
          1.164179104474e+002 0.000000000000e+000 0.000000000000e+000
          1.179104477608e+002 0.000000000000e+000 0.000000000000e+000
          1.194029850742e+002 0.000000000000e+000 0.000000000000e+000
          1.208955223877e+002 0.000000000000e+000 0.000000000000e+000
          1.223880597011e+002 0.000000000000e+000 0.000000000000e+000
          1.238805970145e+002 0.000000000000e+000 0.000000000000e+000
          1.253731343280e+002 0.000000000000e+000 0.000000000000e+000
          1.268656716414e+002 0.000000000000e+000 0.000000000000e+000
          1.283582089548e+002 0.000000000000e+000 0.000000000000e+000
          1.298507462683e+002 0.000000000000e+000 0.000000000000e+000
          1.313432835817e+002 0.000000000000e+000 0.000000000000e+000
          1.328358208952e+002 0.000000000000e+000 0.000000000000e+000
          1.343283582086e+002 0.000000000000e+000 0.000000000000e+000
          1.358208955220e+002 0.000000000000e+000 0.000000000000e+000
          1.373134328355e+002 0.000000000000e+000 0.000000000000e+000
          1.388059701489e+002 0.000000000000e+000 0.000000000000e+000
          1.402985074624e+002 0.000000000000e+000 0.000000000000e+000
          1.417910447758e+002 0.000000000000e+000 0.000000000000e+000
          1.432835820892e+002 0.000000000000e+000 0.000000000000e+000
          1.447761194027e+002 0.000000000000e+000 0.000000000000e+000
          1.462686567161e+002 0.000000000000e+000 0.000000000000e+000
          1.477611940296e+002 0.000000000000e+000 0.000000000000e+000
          1.492537313430e+002 0.000000000000e+000 0.000000000000e+000
          1.507462686564e+002 0.000000000000e+000 0.000000000000e+000
          1.522388059699e+002 0.000000000000e+000 0.000000000000e+000
          1.537313432833e+002 0.000000000000e+000 0.000000000000e+000
          1.552238805968e+002 0.000000000000e+000 0.000000000000e+000
          1.567164179102e+002 0.000000000000e+000 0.000000000000e+000
          1.582089552237e+002 0.000000000000e+000 0.000000000000e+000
          1.597014925371e+002 0.000000000000e+000 0.000000000000e+000
          1.611940298505e+002 0.000000000000e+000 0.000000000000e+000
          1.626865671640e+002 0.000000000000e+000 0.000000000000e+000
          1.641791044774e+002 0.000000000000e+000 0.000000000000e+000
          1.656716417909e+002 0.000000000000e+000 0.000000000000e+000
          1.671641791043e+002 0.000000000000e+000 0.000000000000e+000
          1.686567164177e+002 0.000000000000e+000 0.000000000000e+000
          1.701492537312e+002 0.000000000000e+000 0.000000000000e+000
          1.716417910446e+002 0.000000000000e+000 0.000000000000e+000
          1.731343283581e+002 0.000000000000e+000 0.000000000000e+000
          1.746268656715e+002 0.000000000000e+000 0.000000000000e+000
          1.761194029849e+002 0.000000000000e+000 0.000000000000e+000
          1.776119402984e+002 0.000000000000e+000 0.000000000000e+000
          1.791044776118e+002 0.000000000000e+000 0.000000000000e+000
          1.805970149253e+002 0.000000000000e+000 0.000000000000e+000
          1.820895522387e+002 0.000000000000e+000 0.000000000000e+000
          1.835820895521e+002 0.000000000000e+000 0.000000000000e+000
          1.850746268656e+002 0.000000000000e+000 0.000000000000e+000
          1.865671641790e+002 0.000000000000e+000 0.000000000000e+000
          1.880597014925e+002 0.000000000000e+000 0.000000000000e+000
          1.895522388059e+002 0.000000000000e+000 0.000000000000e+000
          1.910447761194e+002 0.000000000000e+000 0.000000000000e+000
          1.925373134328e+002 0.000000000000e+000 0.000000000000e+000
          1.940298507462e+002 0.000000000000e+000 0.000000000000e+000
          1.955223880597e+002 0.000000000000e+000 0.000000000000e+000
          1.970149253731e+002 0.000000000000e+000 0.000000000000e+000
          1.985074626866e+002 0.000000000000e+000 0.000000000000e+000
          2.000000000000e+002 1.428571428570e+000 0.000000000000e+000
          2.000000000000e+002 2.857142857140e+000 0.000000000000e+000
[...]
      <PointData Scalars="MEAN_PRESSURE">
        <DataArray type="Float64" Name="MEAN_PRESSURE" format="ascii">
          2.000000000000e+002 1.992837357573e+002 1.992837342038e+002 2.000000000000e+002 1.994650313519e+002 1.984099728204e+002 1.977108907488e+002 1.972367422564e+002 1.969355045264e+002 1.967618118815e+002 1.966701636869e+002 1.966352605369e+002 1.966344888782e+002 1.966536768348e+002 1.966831269213e+002 1.967175230341e+002 1.967536652184e+002 1.967899827748e+002 1.968258359250e+002 1.968610463970e+002 1.968956766596e+002 1.969298089034e+002 1.969636073067e+002 1.969971743953e+002 1.970305818806e+002 1.970638736191e+002 1.970970802990e+002 1.971302144538e+002 1.971632776968e+002 1.971962704640e+002 1.972291881462e+002 1.972620267068e+002 1.972947765565e+002 1.973274325477e+002 1.973599874157e+002 1.973924330289e+002 1.974247651563e+002 1.974569738667e+002 1.974890550598e+002 1.975210038368e+002 1.975528097585e+002 1.975844644216e+002 1.976159686252e+002 1.976473119379e+002 1.976784909622e+002 1.977094983684e+002 1.977403319224e+002 1.977709756170e+002 1.978014383680e+002 1.978317027953e+002 1.978617660329e+002 1.978916250824e+002 1.979212787643e+002 1.979507051510e+002 1.979799160779e+002 1.980089013631e+002 1.980376585351e+002 1.980661740333e+002 1.980944466323e+002 1.981224848294e+002 1.981502590854e+002 1.981777789883e+002 1.982050386483e+002 1.982320385532e+002 1.982587667883e+002 1.982852212246e+002 1.983113985242e+002 1.983372915202e+002 1.983629013050e+002 1.983882171818e+002 1.984132449450e+002 1.984379686082e+002 1.984623943092e+002 1.984865130574e+002 1.985103211984e+002 1.985338199427e+002 1.985569987961e+002 1.985798641696e+002 1.986024040181e+002 1.986246194112e+002 1.986465010483e+002 1.986680563340e+002 1.986892731754e+002 1.987101554218e+002 1.987306948472e+002 1.987508903802e+002 1.987707417392e+002 1.987902441842e+002 1.988093953665e+002 1.988281936155e+002 1.988466365268e+002 1.988647224805e+002 1.988824494488e+002 1.988998126204e+002 1.989168082676e+002 1.989334425527e+002 1.989497047486e+002 1.989655976743e+002 1.989811200438e+002 1.989962713915e+002 1.990110462161e+002 1.990254410631e+002 1.990394626257e+002 1.990531002031e+002 1.990663572099e+002 1.990792328557e+002 1.990917271618e+002 1.991038349229e+002 1.991155530264e+002 1.991268887387e+002 1.991378314264e+002 1.991483847538e+002 1.991585491894e+002 1.991683259856e+002 1.991777076447e+002 1.991866924063e+002 1.991952886156e+002 1.992034854271e+002 1.992112868376e+002 1.992186931989e+002 1.992257064355e+002 1.992323219499e+002 1.992385359570e+002 1.992443512441e+002 1.992497667782e+002 1.992547791140e+002 1.992593961344e+002 1.992636171893e+002 1.992674311821e+002 1.992708526571e+002 1.992738783042e+002 1.992764819525e+002 1.992786904599e+002 1.992804990556e+002 1.992819283217e+002 1.992828940122e+002 1.992835155689e+002 1.992837142471e+002 1.992836942175e+002 1.992837377166e+002 1.992837289885e+002 1.992837247112e+002 1.992837168619e+002 1.992837117110e+002 1.992837152825e+002 1.992837156945e+002 1.992837058711e+002 1.992837330191e+002 1.992836917511e+002 1.992837125322e+002 1.992835141696e+002 1.992828929009e+002 1.992819273599e+002 1.992804981066e+002 1.992786897275e+002 1.992764824950e+002 1.992738800813e+002 1.992708546864e+002 1.992674330823e+002 1.992636189580e+002 1.992593965636e+002 1.992547798610e+002 1.992497665436e+002 1.992443499575e+002 1.992385350029e+002 1.992323200350e+002 1.992257040459e+002 1.992186983323e+002 1.992112910512e+002 1.992034864975e+002 1.991952883583e+002 1.991866936752e+002 1.991777043021e+002 1.991683254302e+002 1.991585520596e+002 1.991483886248e+002 1.991378314032e+002 1.991268875387e+002 1.991155507735e+002 1.991038336028e+002 1.990917253702e+002 1.990792335526e+002 1.990663585258e+002 1.990530975854e+002 1.990394609295e+002 1.990254393943e+002 1.990110457585e+002 1.989962703513e+002 1.989811210387e+002 1.989655987842e+002 1.989497018999e+002 1.989334409221e+002 1.989168071504e+002 1.988998127895e+002 1.988824491913e+002 1.988647202917e+002 1.988466374962e+002 1.988281942975e+002 1.988093956947e+002 1.987902441890e+002 1.987707427865e+002 1.987508940109e+002 1.987306978037e+002 1.987101552257e+002 1.986892766395e+002 1.986680565298e+002 1.986465018043e+002 1.986246162878e+002 1.986024052463e+002 1.985798638769e+002 1.985570023189e+002 1.985338213686e+002 1.985103223045e+002 1.984865110627e+002 1.984623922298e+002 1.984379698109e+002 1.984132437849e+002 1.983882195101e+002 1.983629000806e+002 1.983372914302e+002 1.983113962546e+002 1.982852198792e+002 1.982587671069e+002 1.982320389690e+002 1.982050413305e+002 1.981777779651e+002 1.981502551845e+002 1.981224763540e+002 1.980944470656e+002 1.980661735028e+002 1.980376571179e+002 1.980089038468e+002 1.979799178552e+002 1.979507060778e+002 1.979212722643e+002 1.978916232650e+002 1.978617640073e+002 1.978316953524e+002 1.978014326867e+002 1.977709747760e+002 1.977403258482e+002 1.977094961814e+002 1.976784843759e+002 1.976473015356e+002 1.976159549704e+002 1.975844464996e+002 1.975527835670e+002 1.975209729447e+002 1.974890190669e+002 1.974569272604e+002 1.974247063349e+002 1.973923589069e+002 1.973598924630e+002 1.973273128532e+002 1.972946259250e+002 1.972618357122e+002 1.972289469886e+002 1.971959655074e+002 1.971628911293e+002 1.971297251759e+002 1.970964633245e+002 1.970630948244e+002 1.970295958162e+002 1.969959276223e+002 1.969620277634e+002 1.969278023074e+002 1.968931259499e+002 1.968578346843e+002 1.968217973723e+002 1.967848881120e+002 1.967472823498e+002 1.967095593161e+002 1.966732465877e+002 1.966412815041e+002 1.966197279543e+002 1.966179614574e+002 1.966508611160e+002 1.967373401487e+002 1.969130983651e+002 1.972166686555e+002 1.976888394991e+002 1.983954921933e+002 1.994469396370e+002 2.000000000000e+002 2.000000000000e+002 2.000000000000e+002 2.000000000000e+002 2.000000000000e+002 2.000000000000e+002 2.000000000000e+002 2.000000000000e+002 2.000000000000e+002 2.000000000000e+002 2.000000000000e+002 2.000000000000e+002 2.000000000000e+002 1.992746718938e+002 1.966826168162e+002 1.992472798116e+002 1.991995915598e+002 1.991317168986e+002 1.990454684678e+002 1.989405939361e+002 1.969458321472e+002 1.988188311660e+002 1.971816696162e+002 1.974106022000e+002 1.976355541783e+002 1.979628462294e+002 1.981640430939e+002 1.983501246358e+002 1.985221025060e+002 1.986786981220e+002 1.967351731276e+002 1.978014368248e+002 1.987508858359e+002 1.987499659204e+002 1.986024045936e+002 1.984379690511e+002 1.982587677237e+002 1.980661751882e+002 1.992267377297e+002 1.991697737256e+002 1.990931598299e+002 1.980661705460e+002 1.982539923837e+002 1.984399513207e+002 1.985983825782e+002 1.989980189147e+002 1.988824424262e+002 1.970620216206e+002 1.972908885338e+002 1.975245853470e+002 1.988832629678e+002 1.989964147842e+002 1.990918438163e+002 1.991683157938e+002 1.992256964145e+002 1.975206526289e+002 1.972943263402e+002 1.970632681050e+002 1.992631955109e+002 1.992629421373e+002 1.977359291706e+002 1.978697733959e+002 1.966443738769e+002 1.968274717829e+002 1.992805585974e+002 1.972287226091e+002 1.992806086899e+002 1.972274166151e+002 1.966352691817e+002 1.968558332742e+002 1.977024462463e+002 1.978958678700e+002 1.992471138372e+002 1.986787010012e+002 1.991994296409e+002 1.985221102060e+002 1.983501322826e+002 1.981640490727e+002 1.979715394370e+002 1.988186496948e+002 1.991325944256e+002 1.990475352032e+002 1.989430621450e+002 1.971791215271e+002 1.974057214875e+002 1.988190131883e+002 1.989416117521e+002 1.990463218685e+002 1.991324017528e+002 1.981639999389e+002 1.983500851478e+002 1.985220642062e+002 1.991994296963e+002 1.986790835305e+002 1.992471071871e+002 1.976316519060e+002 1.974085550071e+002 1.971794871602e+002 1.969452084941e+002 1.992735322567e+002 1.992737205877e+002 1.966471276354e+002 1.969640755479e+002 1.979858458250e+002 1.976075978146e+002 1.992820653131e+002 1.977666053848e+002 1.967389176338e+002 1.966929182144e+002 1.967328270548e+002 1.977839978210e+002 1.977200266799e+002 1.978825236734e+002 1.966348561880e+002 1.968329046304e+002 1.978021218330e+002 1.992662710468e+002 1.991026631018e+002 1.991589003777e+002 1.990096148967e+002 1.992189418705e+002 1.988981129179e+002 1.986208917141e+002 1.982807805808e+002 1.980897008658e+002 1.984600081863e+002 1.970955393059e+002 1.974921546646e+002 1.972651320889e+002 1.987326604819e+002 1.978014343190e+002 1.992827068512e+002 1.982585928407e+002 1.992827068238e+002 1.982303220625e+002 1.986325192726e+002 1.984710961169e+002 1.982946624538e+002 1.981045538885e+002 1.988582440698e+002 1.987225156496e+002 1.987777874111e+002 1.989755674377e+002 1.975641900423e+002 1.990746335620e+002 1.973390526176e+002 1.991549236689e+002 1.971084801208e+002 1.992160612101e+002 1.992157792227e+002 1.992350442846e+002 1.991545314359e+002 1.991811565327e+002 1.990734386050e+002 1.991076294376e+002 1.989741241265e+002 1.990157031619e+002 1.971134666323e+002 1.989051960805e+002 1.988581932004e+002 1.973422067444e+002 1.972514522470e+002 1.981046996971e+002 1.982957298849e+002 1.984730328621e+002 1.982233099062e+002 1.984050523596e+002 1.986315392630e+002 1.985724796031e+002 1.974867467704e+002 1.987778391716e+002 1.987263909448e+002 1.992345996048e+002 1.970175782189e+002 1.991795854915e+002 1.972549241176e+002 1.991063290970e+002 1.974822672551e+002 1.990141035576e+002 1.980226871054e+002 1.982196402566e+002 1.984017577551e+002 1.985689668381e+002 1.989034175530e+002 1.967186857074e+002 1.992575040832e+002 1.992572987111e+002 1.979015385152e+002 1.976958360746e+002 1.968742798819e+002 1.987760995593e+002 1.984057859700e+002 1.985735344325e+002 1.982245586306e+002 1.980232717674e+002 1.970201488476e+002 1.973363109949e+002 1.992342077107e+002 1.975622717836e+002 1.991801977611e+002 1.990757367467e+002 1.988598016538e+002 1.989768987900e+002 1.970297663864e+002 1.992675706629e+002 1.992675699325e+002 1.978489067732e+002 1.966199604563e+002 1.992579393950e+002 1.987919881569e+002 1.988452653614e+002 1.989643953524e+002 1.975850215108e+002 1.990653570273e+002 1.973624088726e+002 1.982030144080e+002 1.983863364605e+002 1.985552814026e+002 1.992386502762e+002 1.969957093754e+002 1.991873640312e+002 1.968088032877e+002 1.980113496391e+002 1.992785975939e+002 1.992783505555e+002 1.992541873841e+002 1.980413126106e+002 1.975488642939e+002 1.979247491562e+002 1.976738775534e+002 1.969045072028e+002 1.968993020377e+002 1.966174842692e+002 1.966654462679e+002 1.969000082081e+002 1.986454724809e+002 1.984857544968e+002 1.983105716517e+002 1.981215932239e+002 1.991489241817e+002 1.971281707014e+002 1.992116983978e+002 1.987093034879e+002 1.989163528087e+002 1.991479716302e+002 1.990260501194e+002 1.992109904885e+002 1.991160444889e+002 1.986480621714e+002 1.984856879458e+002 1.983124817798e+002 1.981236399594e+002 1.971314587427e+002 1.974578750561e+002 1.972277420471e+002 1.972276404060e+002 1.991160366761e+002 1.974555941489e+002 1.990260314307e+002 1.989175066327e+002 1.987092872240e+002 1.992828093107e+002 1.992828687942e+002 1.983499728926e+002 1.982447637781e+002 1.992790495902e+002 1.969589610017e+002 1.992708245367e+002 1.992713835324e+002 1.967682351644e+002 1.992770613781e+002 1.966414426447e+002 1.969974774398e+002 1.976659232653e+002 1.979337585597e+002 1.969191795257e+002 1.966314673213e+002 1.976447463863e+002 1.967924933077e+002 1.967863427454e+002 1.979543203696e+002 1.966935437129e+002 1.977228197698e+002 1.978456289771e+002 1.966696095838e+002 1.973524035912e+002 1.988518747060e+002 1.989692488259e+002 1.990693916592e+002 1.991857015736e+002 1.992379109439e+002 1.987846953891e+002 1.980149936232e+002 1.982105891012e+002 1.983933651888e+002 1.985617073327e+002 1.977555788832e+002 1.967925942536e+002 1.978518815935e+002 1.977472304208e+002 1.992554021602e+002 1.992763093156e+002 1.970051255338e+002 1.975701432672e+002 1.968146065569e+002 1.971193977826e+002 1.992801184217e+002 1.966839505046e+002 1.986670415573e+002 1.985092001663e+002 1.983360729630e+002 1.981489484920e+002 1.988277351498e+002 1.988098473649e+002 1.986905862155e+002 1.989504475989e+002 1.990537193748e+002 1.976144767180e+002 1.991383241394e+002 1.973908360065e+002 1.992038488701e+002 1.971613483161e+002 1.992442112569e+002 1.992035694702e+002 1.991384977228e+002 1.990541334686e+002 1.989509416576e+002 1.971611852711e+002 1.973898990718e+002 1.981499581063e+002 1.983358697216e+002 1.985090138858e+002 1.992440780879e+002 1.969636800728e+002 1.979826855024e+002 1.992475186782e+002 1.992723549178e+002 1.992723575825e+002 1.969798622469e+002 1.968909785288e+002 1.966283756355e+002 1.978344679387e+002 1.992294200373e+002 1.991735745047e+002 1.990848361890e+002 1.989879057255e+002 1.988710855635e+002 1.970448730084e+002 1.973128287746e+002 1.975386516412e+002 1.985906551587e+002 1.982448216335e+002 1.980515291743e+002 1.984221020200e+002 1.987636986593e+002 1.992608880978e+002 1.992810442500e+002 1.992810454691e+002 1.991980264253e+002 1.990485009564e+002 1.989442143614e+002 1.974034162406e+002 1.981687237765e+002 1.983544812722e+002 1.985260988314e+002 1.973730814194e+002 1.977690492017e+002 1.988223380805e+002 1.988154227481e+002 1.979708695453e+002 1.992832712285e+002 1.988671751203e+002 1.975925107042e+002 1.980023013324e+002 1.988817894003e+002 1.989957070373e+002 1.990912615784e+002 1.992256989868e+002 1.991683404198e+002 1.975221557938e+002 1.972958455524e+002 1.970631176595e+002 1.984379675751e+002 1.986024035698e+002 1.980661707966e+002 1.982587650950e+002 1.992256948238e+002 1.991683193584e+002 1.982587591648e+002 1.984383891113e+002 1.990917159998e+002 1.986026036793e+002 1.989962614542e+002 1.988826052513e+002 1.972947693341e+002 1.987516307255e+002 1.987508849011e+002 1.967701957425e+002 1.976744513360e+002 1.967575833950e+002 1.980259344346e+002 1.978090615576e+002 1.992685885625e+002 1.992682425966e+002 1.978909047095e+002 1.979077516406e+002 1.978230255363e+002 1.988361985961e+002 1.986587907843e+002 1.986983301835e+002 1.988011700712e+002 1.985438634708e+002 1.983738642262e+002 1.981895775999e+002 1.989263043843e+002 1.972104816382e+002 1.974386830145e+002 1.991921811775e+002 1.991220385273e+002 1.990334528133e+002 1.991916250376e+002 1.972102219689e+002 1.991220418690e+002 1.974386324958e+002 1.981895798811e+002 1.983738665444e+002 1.985406379061e+002 1.990334551195e+002 1.989263055609e+002 1.974983769458e+002 1.966165455251e+002 1.992812859370e+002 1.974540832790e+002 1.986794770671e+002 1.986779245823e+002 1.971787511044e+002 1.971783390291e+002 1.991327988694e+002 1.991327071420e+002 1.992779075473e+002 1.966923338703e+002 1.967538788123e+002 1.969658108069e+002 1.967297349709e+002 1.992833090107e+002 1.989637880189e+002 1.992833329750e+002 1.988904184303e+002 1.966477149722e+002 1.992517936751e+002 1.992518897691e+002 1.989411557341e+002 1.990459392601e+002 1.974094788307e+002 1.985210769883e+002 1.981628388164e+002 1.983490040399e+002 1.991995120093e+002 1.968497568962e+002 1.968565436939e+002 1.966253935259e+002 1.979394974431e+002 1.976595068259e+002 1.966330057465e+002 1.969148048627e+002 1.970713457429e+002 1.977161623029e+002 1.968823391569e+002 1.992626697546e+002 1.992626703446e+002 1.976932234641e+002 1.979174121551e+002 1.992573004989e+002 1.976080590288e+002 1.979227402410e+002 1.978881993087e+002 1.991805433241e+002 1.970179643647e+002 1.992345396362e+002 1.982032870211e+002 1.983861323563e+002 1.985555123069e+002 1.987931462858e+002 1.973402437603e+002 1.990741690864e+002 1.975650398582e+002 1.989750070477e+002 1.988438799466e+002 1.992469628005e+002 1.967873551230e+002 1.978493563143e+002 1.977770821810e+002 1.976307443830e+002 1.966477261952e+002 1.992833704582e+002 1.990382716210e+002 1.992833719151e+002 1.991198161546e+002 1.968291851973e+002 1.969469344905e+002 1.977967630643e+002 1.977171248889e+002 1.992781102305e+002 1.975096168217e+002 1.980743893710e+002 1.968533453904e+002 1.979435075954e+002 1.967048892312e+002 1.989046577954e+002 1.990151548516e+002 1.991071861974e+002 1.974799244426e+002 1.972525420095e+002 1.991168970480e+002 1.992104835689e+002 1.990271046973e+002 1.991473138294e+002 1.989187853611e+002 1.972252734886e+002 1.974531776589e+002 1.971337361201e+002 1.981254163292e+002 1.984893264004e+002 1.983140847244e+002 1.986490564178e+002 1.992155952670e+002 1.991542866368e+002 1.971106320993e+002 1.987248856812e+002 1.981024177050e+002 1.982926656085e+002 1.984692548854e+002 1.986308456585e+002 1.987080144471e+002 1.987508881539e+002 1.986023913883e+002 1.982587570109e+002 1.984379663817e+002 1.980661664504e+002 1.992257021312e+002 1.991683208403e+002 1.990918949355e+002 1.988824456156e+002 1.989964782292e+002 1.970637563963e+002 1.972942420462e+002 1.975209510083e+002 1.976565365674e+002 1.969042685541e+002 1.992777503483e+002 1.968254469106e+002 1.987055571706e+002 1.986512982754e+002 1.984914267280e+002 1.983167404737e+002 1.981282064480e+002 1.991456896648e+002 1.992093430396e+002 1.971384832211e+002 1.991180775236e+002 1.990282795750e+002 1.989200220851e+002 1.972217733615e+002 1.974507668819e+002 1.977911604057e+002 1.992631985864e+002 1.977666972850e+002 1.992661540907e+002 1.987482201664e+002 1.987526146733e+002 1.986072174733e+002 1.984431802064e+002 1.982644931113e+002 1.980722922230e+002 1.992247924199e+002 1.991670439675e+002 1.990894452674e+002 1.989935005239e+002 1.988847672498e+002 1.973007844050e+002 1.988809319458e+002 1.982622931314e+002 1.984346988437e+002 1.986053698810e+002 1.989952883152e+002 1.990909163244e+002 1.975230400809e+002 1.991684379157e+002 1.972967641279e+002 1.992257830297e+002 1.970627400960e+002 1.967362154331e+002 1.991602447267e+002 1.970909702313e+002 1.992199152056e+002 1.982794224021e+002 1.986197542409e+002 1.984583394799e+002 1.980882481580e+002 1.972696806996e+002 1.991009766954e+002 1.974966158416e+002 1.990075553590e+002 1.988953676026e+002 1.987359091495e+002 1.967043971695e+002 1.992833408533e+002 1.989790621001e+002 1.992703351682e+002 1.992759074238e+002 1.992759047661e+002 1.977598481777e+002 1.978426196869e+002 1.968423631789e+002 1.970684410661e+002 1.992544420911e+002 1.967111490663e+002 1.992626466574e+002 1.992625313373e+002 1.969363410066e+002 1.988432145755e+002 1.989628980980e+002 1.975887777204e+002 1.990641109579e+002 1.973655142823e+002 1.985571618819e+002 1.983863612439e+002 1.982052339311e+002 1.987928319583e+002 1.992395103918e+002 1.969877052485e+002 1.991881965576e+002 1.976295887562e+002 1.979683291220e+002 1.977394104370e+002 1.966445447743e+002 1.966451276423e+002 1.992822483850e+002 1.979147438992e+002 1.992822479527e+002 1.978592739997e+002 1.980763073513e+002 1.975105116256e+002 1.980019514476e+002 1.966669043162e+002 1.992418062628e+002 1.974440396829e+002 1.976996402434e+002 1.978742732834e+002 1.977343756682e+002 1.968317260891e+002 1.966400207092e+002 1.967445003752e+002 1.975574093513e+002 1.966389292221e+002 1.967838170056e+002 1.977533504660e+002 1.966494957917e+002 1.966270979843e+002 1.978187581485e+002 1.976819985348e+002 1.978805888961e+002 1.977126809657e+002 1.992737081690e+002 1.969409902885e+002 1.970093339036e+002 1.987661551610e+002 1.988000998178e+002 1.992416393553e+002 1.991914042092e+002 1.992314563858e+002 1.991760504029e+002 1.990644332504e+002 1.989632824243e+002 1.973648001428e+002 1.988688916563e+002 1.988372374437e+002 1.980391815392e+002 1.979980555217e+002 1.982337946575e+002 1.981915263146e+002 1.983756742762e+002 1.984149031036e+002 1.985812633491e+002 1.985454522916e+002 1.971956067686e+002 1.992804750132e+002 1.992804468496e+002 1.992821251566e+002 1.992821259179e+002 1.975608075145e+002 1.992816726430e+002 1.986354664645e+002 1.984743424251e+002 1.982981830333e+002 1.981083216333e+002 1.987205435931e+002 1.987804192713e+002 1.988558361064e+002 1.989735003983e+002 1.975684408666e+002 1.990729217545e+002 1.973434186221e+002 1.991535773643e+002 1.971129090962e+002 1.992150846748e+002 1.992150703506e+002 1.991535565515e+002 1.992354763248e+002 1.990728419309e+002 1.989734044925e+0