<?xml version="1.0"?>
<VTKFile type="UnstructuredGrid" version="0.1" byte_order="LittleEndian">
  <UnstructuredGrid>
    <Piece NumberOfPoints="2604" NumberOfCells="4910">
      <Points>
        <DataArray type="Float64" NumberOfComponents="3" format="ascii">
          0.000000000000e+000 0.000000000000e+000 0.000000000000e+000
          2.000000000000e+002 0.000000000000e+000 0.000000000000e+000
          2.000000000000e+002 2.000000000000e+001 0.000000000000e+000
          0.000000000000e+000 2.000000000000e+001 0.000000000000e+000
          1.492537313427e+000 0.000000000000e+000 0.000000000000e+000
          2.985074626854e+000 0.000000000000e+000 0.000000000000e+000
          4.477611940281e+000 0.000000000000e+000 0.000000000000e+000
          5.970149253708e+000 0.000000000000e+000 0.000000000000e+000
          7.462686567135e+000 0.000000000000e+000 0.000000000000e+000
          8.955223880561e+000 0.000000000000e+000 0.000000000000e+000
          1.044776119399e+001 0.000000000000e+000 0.000000000000e+000
          1.194029850741e+001 0.000000000000e+000 0.000000000000e+000
          1.343283582084e+001 0.000000000000e+000 0.000000000000e+000
          1.492537313427e+001 0.000000000000e+000 0.000000000000e+000
          1.641791044770e+001 0.000000000000e+000 0.000000000000e+000
          1.791044776112e+001 0.000000000000e+000 0.000000000000e+000
          1.940298507455e+001 0.000000000000e+000 0.000000000000e+000
          2.089552238798e+001 0.000000000000e+000 0.000000000000e+000
          2.238805970141e+001 0.000000000000e+000 0.000000000000e+000
          2.388059701484e+001 0.000000000000e+000 0.000000000000e+000
          2.537313432826e+001 0.000000000000e+000 0.000000000000e+000
          2.686567164169e+001 0.000000000000e+000 0.000000000000e+000
          2.835820895511e+001 0.000000000000e+000 0.000000000000e+000
          2.985074626854e+001 0.000000000000e+000 0.000000000000e+000
          3.134328358196e+001 0.000000000000e+000 0.000000000000e+000
          3.283582089539e+001 0.000000000000e+000 0.000000000000e+000
          3.432835820881e+001 0.000000000000e+000 0.000000000000e+000
          3.582089552224e+001 0.000000000000e+000 0.000000000000e+000
          3.731343283566e+001 0.000000000000e+000 0.000000000000e+000
          3.880597014909e+001 0.000000000000e+000 0.000000000000e+000
          4.029850746251e+001 0.000000000000e+000 0.000000000000e+000
          4.179104477594e+001 0.000000000000e+000 0.000000000000e+000
          4.328358208936e+001 0.000000000000e+000 0.000000000000e+000
          4.477611940279e+001 0.000000000000e+000 0.000000000000e+000
          4.626865671621e+001 0.000000000000e+000 0.000000000000e+000
          4.776119402964e+001 0.000000000000e+000 0.000000000000e+000
          4.925373134306e+001 0.000000000000e+000 0.000000000000e+000
          5.074626865649e+001 0.000000000000e+000 0.000000000000e+000
          5.223880596991e+001 0.000000000000e+000 0.000000000000e+000
          5.373134328334e+001 0.000000000000e+000 0.000000000000e+000
          5.522388059676e+001 0.000000000000e+000 0.000000000000e+000
          5.671641791019e+001 0.000000000000e+000 0.000000000000e+000
          5.820895522361e+001 0.000000000000e+000 0.000000000000e+000
          5.970149253704e+001 0.000000000000e+000 0.000000000000e+000
          6.119402985046e+001 0.000000000000e+000 0.000000000000e+000
          6.268656716389e+001 0.000000000000e+000 0.000000000000e+000
          6.417910447732e+001 0.000000000000e+000 0.000000000000e+000
          6.567164179075e+001 0.000000000000e+000 0.000000000000e+000
          6.716417910418e+001 0.000000000000e+000 0.000000000000e+000
          6.865671641761e+001 0.000000000000e+000 0.000000000000e+000
          7.014925373104e+001 0.000000000000e+000 0.000000000000e+000
          7.164179104447e+001 0.000000000000e+000 0.000000000000e+000
          7.313432835790e+001 0.000000000000e+000 0.000000000000e+000
          7.462686567133e+001 0.000000000000e+000 0.000000000000e+000
          7.611940298476e+001 0.000000000000e+000 0.000000000000e+000
          7.761194029819e+001 0.000000000000e+000 0.000000000000e+000
          7.910447761162e+001 0.000000000000e+000 0.000000000000e+000
          8.059701492505e+001 0.000000000000e+000 0.000000000000e+000
          8.208955223848e+001 0.000000000000e+000 0.000000000000e+000
          8.358208955191e+001 0.000000000000e+000 0.000000000000e+000
          8.507462686534e+001 0.000000000000e+000 0.000000000000e+000
          8.656716417877e+001 0.000000000000e+000 0.000000000000e+000
          8.805970149220e+001 0.000000000000e+000 0.000000000000e+000
          8.955223880563e+001 0.000000000000e+000 0.000000000000e+000
          9.104477611907e+001 0.000000000000e+000 0.000000000000e+000
          9.253731343250e+001 0.000000000000e+000 0.000000000000e+000
          9.402985074593e+001 0.000000000000e+000 0.000000000000e+000
          9.552238805936e+001 0.000000000000e+000 0.000000000000e+000
          9.701492537279e+001 0.000000000000e+000 0.000000000000e+000
          9.850746268622e+001 0.000000000000e+000 0.000000000000e+000
          9.999999999965e+001 0.000000000000e+000 0.000000000000e+000
          1.014925373131e+002 0.000000000000e+000 0.000000000000e+000
          1.029850746265e+002 0.000000000000e+000 0.000000000000e+000
          1.044776119399e+002 0.000000000000e+000 0.000000000000e+000
          1.059701492534e+002 0.000000000000e+000 0.000000000000e+000
          1.074626865668e+002 0.000000000000e+000 0.000000000000e+000
          1.089552238802e+002 0.000000000000e+000 0.000000000000e+000
          1.104477611937e+002 0.000000000000e+000 0.000000000000e+000
          1.119402985071e+002 0.000000000000e+000 0.000000000000e+000
          1.134328358205e+002 0.000000000000e+000 0.000000000000e+000
          1.149253731340e+002 0.000000000000e+000 0.000000000000e+000
          1.164179104474e+002 0.000000000000e+000 0.000000000000e+000
          1.179104477608e+002 0.000000000000e+000 0.000000000000e+000
          1.194029850742e+002 0.000000000000e+000 0.000000000000e+000
          1.208955223877e+002 0.000000000000e+000 0.000000000000e+000
          1.223880597011e+002 0.000000000000e+000 0.000000000000e+000
          1.238805970145e+002 0.000000000000e+000 0.000000000000e+000
          1.253731343280e+002 0.000000000000e+000 0.000000000000e+000
          1.268656716414e+002 0.000000000000e+000 0.000000000000e+000
          1.283582089548e+002 0.000000000000e+000 0.000000000000e+000
          1.298507462683e+002 0.000000000000e+000 0.000000000000e+000
          1.313432835817e+002 0.000000000000e+000 0.000000000000e+000
          1.328358208952e+002 0.000000000000e+000 0.000000000000e+000
          1.343283582086e+002 0.000000000000e+000 0.000000000000e+000
          1.358208955220e+002 0.000000000000e+000 0.000000000000e+000
          1.373134328355e+002 0.000000000000e+000 0.000000000000e+000
          1.388059701489e+002 0.000000000000e+000 0.000000000000e+000
          1.402985074624e+002 0.000000000000e+000 0.000000000000e+000
          1.417910447758e+002 0.000000000000e+000 0.000000000000e+000
          1.432835820892e+002 0.000000000000e+000 0.000000000000e+000
          1.447761194027e+002 0.000000000000e+000 0.000000000000e+000
          1.462686567161e+002 0.000000000000e+000 0.000000000000e+000
          1.477611940296e+002 0.000000000000e+000 0.000000000000e+000
          1.492537313430e+002 0.000000000000e+000 0.000000000000e+000
          1.507462686564e+002 0.000000000000e+000 0.000000000000e+000
          1.522388059699e+002 0.000000000000e+000 0.000000000000e+000
          1.537313432833e+002 0.000000000000e+000 0.000000000000e+000
          1.552238805968e+002 0.000000000000e+000 0.000000000000e+000
          1.567164179102e+002 0.000000000000e+000 0.000000000000e+000
          1.582089552237e+002 0.000000000000e+000 0.000000000000e+000
          1.597014925371e+002 0.000000000000e+000 0.000000000000e+000
          1.611940298505e+002 0.000000000000e+000 0.000000000000e+000
          1.626865671640e+002 0.000000000000e+000 0.000000000000e+000
          1.641791044774e+002 0.000000000000e+000 0.000000000000e+000
          1.656716417909e+002 0.000000000000e+000 0.000000000000e+000
          1.671641791043e+002 0.000000000000e+000 0.000000000000e+000
          1.686567164177e+002 0.000000000000e+000 0.000000000000e+000
          1.701492537312e+002 0.000000000000e+000 0.000000000000e+000
          1.716417910446e+002 0.000000000000e+000 0.000000000000e+000
          1.731343283581e+002 0.000000000000e+000 0.000000000000e+000
          1.746268656715e+002 0.000000000000e+000 0.000000000000e+000
          1.761194029849e+002 0.000000000000e+000 0.000000000000e+000
          1.776119402984e+002 0.000000000000e+000 0.000000000000e+000
          1.791044776118e+002 0.000000000000e+000 0.000000000000e+000
          1.805970149253e+002 0.000000000000e+000 0.000000000000e+000
          1.820895522387e+002 0.000000000000e+000 0.000000000000e+000
          1.835820895521e+002 0.000000000000e+000 0.000000000000e+000
          1.850746268656e+002 0.000000000000e+000 0.000000000000e+000
          1.865671641790e+002 0.000000000000e+000 0.000000000000e+000
          1.880597014925e+002 0.000000000000e+000 0.000000000000e+000
          1.895522388059e+002 0.000000000000e+000 0.000000000000e+000
          1.910447761194e+002 0.000000000000e+000 0.000000000000e+000
          1.925373134328e+002 0.000000000000e+000 0.000000000000e+000
          1.940298507462e+002 0.000000000000e+000 0.000000000000e+000
          1.955223880597e+002 0.000000000000e+000 0.000000000000e+000
          1.970149253731e+002 0.000000000000e+000 0.000000000000e+000
          1.985074626866e+002 0.000000000000e+000 0.000000000000e+000
          2.000000000000e+002 1.428571428570e+000 0.000000000000e+000
          2.000000000000e+002 2.857142857140e+000 0.000000000000e+000
[...]
      <PointData Scalars="MEAN_PRESSURE">
        <DataArray type="Float64" Name="MEAN_PRESSURE" format="ascii">
          2.000000000000e+002 1.991391152927e+002 1.991391137936e+002 2.000000000000e+002 1.994959139714e+002 1.984844399684e+002 1.978023226154e+002 1.973278928834e+002 1.970158284175e+002 1.968265887762e+002 1.967188029395e+002 1.966694897827e+002 1.966570410134e+002 1.966674692254e+002 1.966906007404e+002 1.967206088857e+002 1.967536450056e+002 1.967876313576e+002 1.968215441188e+002 1.968549568916e+002 1.968877902520e+002 1.969200524846e+002 1.969518899888e+002 1.969834112087e+002 1.970147045171e+002 1.970458308401e+002 1.970768381241e+002 1.971077525764e+002 1.971385860305e+002 1.971693465357e+002 1.972000346947e+002 1.972306498007e+002 1.972611849250e+002 1.972916364555e+002 1.973219984156e+002 1.973522638334e+002 1.973824290442e+002 1.974124852822e+002 1.974424288841e+002 1.974722554650e+002 1.975019557393e+002 1.975315221828e+002 1.975609554317e+002 1.975902461598e+002 1.976193912637e+002 1.976483841469e+002 1.976772227251e+002 1.977058926678e+002 1.977344017777e+002 1.977627344753e+002 1.977908880716e+002 1.978188597500e+002 1.978466483141e+002 1.978742340339e+002 1.979016273009e+002 1.979288188478e+002 1.979558062827e+002 1.979825772664e+002 1.980091304899e+002 1.980354733778e+002 1.980615791849e+002 1.980874562829e+002 1.981130991379e+002 1.981385079509e+002 1.981636717254e+002 1.981885882772e+002 1.982132543215e+002 1.982376630915e+002 1.982618152912e+002 1.982857009292e+002 1.983093249650e+002 1.983326725615e+002 1.983557489854e+002 1.983785457289e+002 1.984010591200e+002 1.984232899291e+002 1.984452282216e+002 1.984668795182e+002 1.984882324275e+002 1.985092875677e+002 1.985300360287e+002 1.985504842435e+002 1.985706207086e+002 1.985904485899e+002 1.986099599138e+002 1.986291532911e+002 1.986480280743e+002 1.986665794778e+002 1.986848049259e+002 1.987027024650e+002 1.987202694619e+002 1.987375040052e+002 1.987544038046e+002 1.987709639634e+002 1.987871805910e+002 1.988030590417e+002 1.988185888732e+002 1.988337723222e+002 1.988486077809e+002 1.988630944171e+002 1.988772266584e+002 1.988910008553e+002 1.989044229246e+002 1.989174823864e+002 1.989301820824e+002 1.989425208880e+002 1.989544984554e+002 1.989661094846e+002 1.989773506604e+002 1.989882285267e+002 1.989987326357e+002 1.990088661321e+002 1.990186291329e+002 1.990280225136e+002 1.990370388087e+002 1.990456760310e+002 1.990539418570e+002 1.990618256368e+002 1.990693309190e+002 1.990764577781e+002 1.990832078092e+002 1.990895763669e+002 1.990955595903e+002 1.991011599342e+002 1.991063762027e+002 1.991112048928e+002 1.991156534056e+002 1.991197209567e+002 1.991233967162e+002 1.991266945505e+002 1.991296111536e+002 1.991321212005e+002 1.991342504672e+002 1.991359942804e+002 1.991373724189e+002 1.991383036044e+002 1.991389029644e+002 1.991390945504e+002 1.991390752359e+002 1.991391171821e+002 1.991391087655e+002 1.991391046407e+002 1.991390970716e+002 1.991390921046e+002 1.991390955485e+002 1.991390959458e+002 1.991390864729e+002 1.991391126515e+002 1.991390728566e+002 1.991390928957e+002 1.991389016140e+002 1.991383025319e+002 1.991373714905e+002 1.991359933645e+002 1.991342497601e+002 1.991321217221e+002 1.991296128647e+002 1.991266965041e+002 1.991233985447e+002 1.991197226575e+002 1.991156538168e+002 1.991112056092e+002 1.991063759753e+002 1.991011586955e+002 1.990955586719e+002 1.990895745266e+002 1.990832055146e+002 1.990764626972e+002 1.990693349543e+002 1.990618266610e+002 1.990539416087e+002 1.990456772392e+002 1.990370356109e+002 1.990280219763e+002 1.990186318646e+002 1.990088698163e+002 1.989987326118e+002 1.989882273827e+002 1.989773485143e+002 1.989661082246e+002 1.989544967502e+002 1.989425215439e+002 1.989301833223e+002 1.989174799075e+002 1.989044213182e+002 1.988909992761e+002 1.988772262234e+002 1.988630934370e+002 1.988486087189e+002 1.988337733669e+002 1.988185862042e+002 1.988030575164e+002 1.987871795477e+002 1.987709641254e+002 1.987544035695e+002 1.987375019688e+002 1.987202703698e+002 1.987027031046e+002 1.986848052351e+002 1.986665794849e+002 1.986480290457e+002 1.986291566520e+002 1.986099626478e+002 1.985904484099e+002 1.985706239063e+002 1.985504844271e+002 1.985300367241e+002 1.985092846951e+002 1.984882335498e+002 1.984668792436e+002 1.984452314409e+002 1.984232912272e+002 1.984010601241e+002 1.983785439013e+002 1.983557470827e+002 1.983326736483e+002 1.983093239009e+002 1.982857030344e+002 1.982618141714e+002 1.982376630008e+002 1.982132522574e+002 1.981885870509e+002 1.981636720026e+002 1.981385083140e+002 1.981131015436e+002 1.980874553495e+002 1.980615756631e+002 1.980354657470e+002 1.980091308567e+002 1.979825767626e+002 1.979558049773e+002 1.979288210233e+002 1.979016288303e+002 1.978742347852e+002 1.978466424160e+002 1.978188580058e+002 1.977908861095e+002 1.977627276460e+002 1.977343964620e+002 1.977058915866e+002 1.976772169028e+002 1.976483816596e+002 1.976193847269e+002 1.975902360531e+002 1.975609422079e+002 1.975315048809e+002 1.975019307352e+002 1.974722258231e+002 1.974423941109e+002 1.974124403473e+002 1.973823723288e+002 1.973521923391e+002 1.973219069275e+002 1.972915210961e+002 1.972610396896e+002 1.972304656416e+002 1.971998021116e+002 1.971690523482e+002 1.971382129802e+002 1.971072802622e+002 1.970762426537e+002 1.970450794486e+002 1.970137532755e+002 1.969822086137e+002 1.969503650530e+002 1.969181135535e+002 1.968853265272e+002 1.968518618536e+002 1.968176603002e+002 1.967827417867e+002 1.967475270088e+002 1.967129982744e+002 1.966811988143e+002 1.966556422930e+002 1.966430870729e+002 1.966532320148e+002 1.967007890950e+002 1.968036079352e+002 1.969949461605e+002 1.973092013693e+002 1.977817798026e+002 1.984710520868e+002 1.994788111892e+002 2.000000000000e+002 2.000000000000e+002 2.000000000000e+002 2.000000000000e+002 2.000000000000e+002 2.000000000000e+002 2.000000000000e+002 2.000000000000e+002 2.000000000000e+002 2.000000000000e+002 2.000000000000e+002 2.000000000000e+002 2.000000000000e+002 1.991303761977e+002 1.967388286056e+002 1.991039806720e+002 1.990580803004e+002 1.989928628187e+002 1.989101736472e+002 1.988098876972e+002 1.969351386543e+002 1.986937877934e+002 1.971557282711e+002 1.973692136166e+002 1.975792574675e+002 1.978856183518e+002 1.980745393731e+002 1.982497647701e+002 1.984122037076e+002 1.985605832304e+002 1.967364611413e+002 1.977344003079e+002 1.986291490807e+002 1.986282744104e+002 1.984882329512e+002 1.983326729625e+002 1.981636725662e+002 1.979825782833e+002 1.990842004883e+002 1.990294136523e+002 1.989558722597e+002 1.979825741346e+002 1.981591762576e+002 1.983345453393e+002 1.984844222650e+002 1.988647657999e+002 1.987543972571e+002 1.970440951896e+002 1.972575585697e+002 1.974755995263e+002 1.987551795350e+002 1.988632316741e+002 1.989546103886e+002 1.990280127853e+002 1.990831981948e+002 1.974719271102e+002 1.972607615166e+002 1.970452458760e+002 1.991193145941e+002 1.991190704241e+002 1.976731044630e+002 1.977983883775e+002 1.966585085920e+002 1.968230516875e+002 1.991360516898e+002 1.973211091667e+002 1.991360999916e+002 1.973214261291e+002 1.966550947324e+002 1.968499979152e+002 1.976417890170e+002 1.978228349368e+002 1.991038207552e+002 1.985605858815e+002 1.990579245266e+002 1.984122107418e+002 1.982497717002e+002 1.980745447457e+002 1.978937708125e+002 1.986936149986e+002 1.989937052441e+002 1.989121528026e+002 1.988122447318e+002 1.971533564640e+002 1.973646607188e+002 1.986939611020e+002 1.988108596857e+002 1.989109908819e+002 1.989935202307e+002 1.980744989865e+002 1.982497276632e+002 1.984121676478e+002 1.990579245858e+002 1.985609490902e+002 1.991038143644e+002 1.975756102411e+002 1.973673029064e+002 1.971536897122e+002 1.969345355706e+002 1.991292775680e+002 1.991294591179e+002 1.966968043031e+002 1.969523283486e+002 1.979071893341e+002 1.975531340082e+002 1.991375045161e+002 1.978582862767e+002 1.967399634909e+002 1.967478994030e+002 1.967341828159e+002 1.977180787435e+002 1.976582301905e+002 1.978103327994e+002 1.966531008977e+002 1.968282241731e+002 1.977350414956e+002 1.991222785766e+002 1.989649856307e+002 1.990189666312e+002 1.988758574242e+002 1.990766971596e+002 1.987693429663e+002 1.985057542541e+002 1.981844053802e+002 1.980046728546e+002 1.983534947384e+002 1.970753892778e+002 1.974453220786e+002 1.972335420904e+002 1.986118281546e+002 1.977343980060e+002 1.991381231289e+002 1.983380391496e+002 1.991381231015e+002 1.983112326413e+002 1.985167775449e+002 1.983639730186e+002 1.981974835825e+002 1.980186257979e+002 1.987313299607e+002 1.986021890906e+002 1.986547294817e+002 1.988433003732e+002 1.975125841641e+002 1.989381129735e+002 1.973024701752e+002 1.990151465642e+002 1.970874588369e+002 1.990739249833e+002 1.990736535706e+002 1.990921974910e+002 1.990147696877e+002 1.990403541110e+002 1.989369676831e+002 1.989697493213e+002 1.988419207206e+002 1.988816824541e+002 1.970921272708e+002 1.987761001228e+002 1.987312815132e+002 1.973054146498e+002 1.972207907329e+002 1.980187620491e+002 1.981984889849e+002 1.983658033892e+002 1.981302928690e+002 1.983015910065e+002 1.985158483143e+002 1.984598862837e+002 1.974402741018e+002 1.986547787643e+002 1.986058708113e+002 1.990917693100e+002 1.970025032352e+002 1.990388438815e+002 1.972240219905e+002 1.989685019063e+002 1.974360917903e+002 1.988801518428e+002 1.979417548958e+002 1.981268388454e+002 1.982984806699e+002 1.984565594505e+002 1.987744032170e+002 1.967213580914e+002 1.991138303446e+002 1.991136324694e+002 1.978281486851e+002 1.976356082253e+002 1.968674655824e+002 1.986531240446e+002 1.983022836541e+002 1.984608853415e+002 1.981314682415e+002 1.979423038061e+002 1.970049261229e+002 1.972999149305e+002 1.990913920050e+002 1.975107926519e+002 1.990394324326e+002 1.989391701938e+002 1.987328142991e+002 1.988445728357e+002 1.970139383615e+002 1.991235311459e+002 1.991235304439e+002 1.977788447195e+002 1.966432233268e+002 1.991142497737e+002 1.986682388494e+002 1.987189633136e+002 1.988326234617e+002 1.975320421511e+002 1.989292237852e+002 1.973242550185e+002 1.981111945773e+002 1.982839261685e+002 1.984436023683e+002 1.990956696650e+002 1.969820142007e+002 1.990463217589e+002 1.968053973219e+002 1.979311162504e+002 1.991341609259e+002 1.991339227482e+002 1.991106347896e+002 1.979592364776e+002 1.974982711959e+002 1.978499015966e+002 1.976150781724e+002 1.969865805090e+002 1.968911870846e+002 1.966510197978e+002 1.966759838901e+002 1.968918835799e+002 1.985290605577e+002 1.983778286086e+002 1.982124751507e+002 1.980346358808e+002 1.990093841280e+002 1.971058354388e+002 1.990697268745e+002 1.985896391035e+002 1.987867455524e+002 1.990084692349e+002 1.988915835611e+002 1.990690456977e+002 1.989778221092e+002 1.985315166987e+002 1.983777655685e+002 1.982142755011e+002 1.980365594266e+002 1.971089093674e+002 1.974133255855e+002 1.971986842100e+002 1.971985862167e+002 1.989778146842e+002 1.974111966649e+002 1.988915659306e+002 1.987878471886e+002 1.985896240740e+002 1.991382219269e+002 1.991382792860e+002 1.984267909602e+002 1.983259161973e+002 1.991345967283e+002 1.970427307434e+002 1.991266674386e+002 1.991272062766e+002 1.968385707953e+002 1.991326798227e+002 1.966843999926e+002 1.970811527697e+002 1.976076421611e+002 1.978583459605e+002 1.969100016998e+002 1.966618544356e+002 1.975878481681e+002 1.967899175358e+002 1.967841454851e+002 1.978776236126e+002 1.966991424181e+002 1.976608424483e+002 1.977757749978e+002 1.966781267390e+002 1.973149241773e+002 1.987252600171e+002 1.988372612355e+002 1.989330895500e+002 1.990447233503e+002 1.990949577124e+002 1.986613001627e+002 1.979345353292e+002 1.981183216037e+002 1.982905593497e+002 1.984496859060e+002 1.976914867285e+002 1.967900347858e+002 1.977816304479e+002 1.976836757990e+002 1.991118051468e+002 1.991319547676e+002 1.969908561727e+002 1.975181449057e+002 1.968870352104e+002 1.972107066879e+002 1.991356272721e+002 1.966906416498e+002 1.985495216491e+002 1.983999991340e+002 1.982365144640e+002 1.980603475575e+002 1.987022660395e+002 1.986852353436e+002 1.985718674223e+002 1.988192986297e+002 1.989180755770e+002 1.975595610976e+002 1.989992057773e+002 1.973507718940e+002 1.990621753025e+002 1.971367745742e+002 1.991010251240e+002 1.990619065042e+002 1.989993723986e+002 1.989184722246e+002 1.988197706237e+002 1.971366342316e+002 1.973499000693e+002 1.980612965805e+002 1.982363227868e+002 1.983998228973e+002 1.991008968723e+002 1.969519191793e+002 1.979042249496e+002 1.991042107196e+002 1.991281426464e+002 1.991281452128e+002 1.969671640767e+002 1.968833156335e+002 1.966710703229e+002 1.977653238410e+002 1.990867826424e+002 1.990330663586e+002 1.989478920200e+002 1.988550951207e+002 1.987435693896e+002 1.970280559298e+002 1.972780155228e+002 1.974887337903e+002 1.984771010927e+002 1.981505415399e+002 1.979688271741e+002 1.983176877899e+002 1.986413305206e+002 1.991170910433e+002 1.991365199648e+002 1.991365211410e+002 1.990565749036e+002 1.989130776345e+002 1.988133450776e+002 1.973625096449e+002 1.980789406176e+002 1.982538734013e+002 1.984159843990e+002 1.974679111269e+002 1.977040901166e+002 1.986971266179e+002 1.986905426749e+002 1.978931424626e+002 1.991386673480e+002 1.989238920797e+002 1.975390387065e+002 1.979226261669e+002 1.987537745721e+002 1.988625548340e+002 1.989540521344e+002 1.990832006629e+002 1.990280364367e+002 1.974733304239e+002 1.972621771753e+002 1.970451007143e+002 1.983326716158e+002 1.984882320112e+002 1.979825743389e+002 1.981636701882e+002 1.990831966693e+002 1.990280161833e+002 1.981636648436e+002 1.983330700741e+002 1.989544878624e+002 1.984884219652e+002 1.988630850601e+002 1.987545525702e+002 1.972611781190e+002 1.986298571588e+002 1.986291482189e+002 1.967689332716e+002 1.976156147187e+002 1.967572897099e+002 1.979448029761e+002 1.977415376745e+002 1.991245122390e+002 1.991241787840e+002 1.978181850012e+002 1.978339712135e+002 1.977546101494e+002 1.987103263262e+002 1.985416934562e+002 1.985792192880e+002 1.986769762538e+002 1.984327947336e+002 1.982721576156e+002 1.980985538610e+002 1.987962444481e+002 1.971825949682e+002 1.973954159757e+002 1.990509536633e+002 1.989835738168e+002 1.988986694800e+002 1.990504188301e+002 1.971823445105e+002 1.989835769980e+002 1.973953672915e+002 1.980985559031e+002 1.982721597097e+002 1.984297421430e+002 1.988986716603e+002 1.987962455471e+002 1.975915107700e+002 1.966460586461e+002 1.991367530094e+002 1.975480095354e+002 1.985613224243e+002 1.985598490236e+002 1.971530094861e+002 1.971526210938e+002 1.989939014513e+002 1.989938133796e+002 1.991334956295e+002 1.966977577240e+002 1.968176552331e+002 1.969539476249e+002 1.967313264126e+002 1.991387037814e+002 1.990172846504e+002 1.991387268893e+002 1.989478157277e+002 1.966621204121e+002 1.991083287534e+002 1.991084213278e+002 1.988104241649e+002 1.989106244677e+002 1.973681651788e+002 1.984112333282e+002 1.980734068326e+002 1.982487078182e+002 1.990580037670e+002 1.968442121826e+002 1.968506817897e+002 1.966596901359e+002 1.978637262692e+002 1.976016443114e+002 1.966680586867e+002 1.969058378856e+002 1.970528104541e+002 1.976546161867e+002 1.968751148624e+002 1.991188079177e+002 1.991188084839e+002 1.976331653174e+002 1.978430247459e+002 1.991136341727e+002 1.975535648694e+002 1.978480187067e+002 1.978156502015e+002 1.990397646419e+002 1.970028665625e+002 1.990917115926e+002 1.981114511361e+002 1.982837335228e+002 1.984438210217e+002 1.986693408543e+002 1.973035814602e+002 1.989376678495e+002 1.975133778947e+002 1.988427647640e+002 1.987176433750e+002 1.991036753162e+002 1.967851173445e+002 1.977792656390e+002 1.977116069057e+002 1.975747624176e+002 1.966611914750e+002 1.991387630340e+002 1.990880867930e+002 1.991387644398e+002 1.991650498890e+002 1.969053004094e+002 1.969361681352e+002 1.977300259328e+002 1.976555163279e+002 1.991336910446e+002 1.974616240516e+002 1.979902920999e+002 1.968476320156e+002 1.978674860666e+002 1.967093480212e+002 1.987755866703e+002 1.988811578275e+002 1.989693241192e+002 1.974339052031e+002 1.972218017893e+002 1.989786403101e+002 1.990685580672e+002 1.988925931924e+002 1.990078376748e+002 1.987890675272e+002 1.971963838812e+002 1.974089422914e+002 1.971110346446e+002 1.980382286234e+002 1.983812057673e+002 1.982157861042e+002 1.985324596817e+002 1.990734766117e+002 1.990145346656e+002 1.970894689205e+002 1.986044409658e+002 1.980166190950e+002 1.981956023800e+002 1.983622330531e+002 1.985151909577e+002 1.985884153752e+002 1.986291512276e+002 1.984882208327e+002 1.981636628953e+002 1.983326705371e+002 1.979825704541e+002 1.990832036749e+002 1.990280175953e+002 1.989546594336e+002 1.987544002332e+002 1.988632923769e+002 1.970457134430e+002 1.972606848148e+002 1.974722058428e+002 1.975988684861e+002 1.968959079362e+002 1.991333440721e+002 1.969007331575e+002 1.985860818853e+002 1.985345861172e+002 1.983831916040e+002 1.982182894223e+002 1.980408508787e+002 1.990062780307e+002 1.990674607755e+002 1.971154556692e+002 1.989797730976e+002 1.988937177698e+002 1.987902480748e+002 1.971931183816e+002 1.974066920985e+002 1.977247821609e+002 1.991193175560e+002 1.977018896535e+002 1.991221658720e+002 1.986266152676e+002 1.986307924321e+002 1.984927939869e+002 1.983375957305e+002 1.981690645993e+002 1.979883227848e+002 1.990823280336e+002 1.990267906559e+002 1.989523106978e+002 1.988604447725e+002 1.987566141937e+002 1.972667864257e+002 1.987529568979e+002 1.981669925915e+002 1.983295842916e+002 1.984910429448e+002 1.988621544642e+002 1.989537211478e+002 1.974741562300e+002 1.990281301600e+002 1.972630341520e+002 1.990832815790e+002 1.970447493098e+002 1.967374425406e+002 1.990202580326e+002 1.970711210697e+002 1.990776338462e+002 1.981831260171e+002 1.985046760088e+002 1.983519175463e+002 1.980033083832e+002 1.972377823358e+002 1.989633683765e+002 1.974494864675e+002 1.988738874262e+002 1.987667241341e+002 1.986149149385e+002 1.967633509992e+002 1.991387344866e+002 1.990311042710e+002 1.991261957423e+002 1.991315673145e+002 1.991315647542e+002 1.976954811300e+002 1.977729571061e+002 1.968371762397e+002 1.970500952518e+002 1.991108802066e+002 1.967737258118e+002 1.991187856752e+002 1.991186745436e+002 1.969262078388e+002 1.987170094920e+002 1.988311927796e+002 1.975355510672e+002 1.989280299048e+002 1.973271518665e+002 1.984453828869e+002 1.982839497919e+002 1.981132831650e+002 1.986690418836e+002 1.990964979435e+002 1.969745126583e+002 1.990471222140e+002 1.975736822724e+002 1.978907597142e+002 1.976763606740e+002 1.966613065999e+002 1.966859678990e+002 1.991376810443e+002 1.980037439960e+002 1.991376806283e+002 1.979504787277e+002 1.979920930368e+002 1.974624593990e+002 1.979222978044e+002 1.966771343406e+002 1.990987089112e+002 1.975375483386e+002 1.976391656643e+002 1.978026036277e+002 1.976716511100e+002 1.968270859142e+002 1.966550641864e+002 1.967450491396e+002 1.975062515018e+002 1.966541252944e+002 1.967817989173e+002 1.976894019962e+002 1.966992469164e+002 1.966527443862e+002 1.977506151814e+002 1.976226706185e+002 1.978085198831e+002 1.976513600613e+002 1.991294471488e+002 1.970226185379e+002 1.969948095869e+002 1.986436662017e+002 1.986759576346e+002 1.990985481539e+002 1.990502064716e+002 1.990887430116e+002 1.990354458781e+002 1.989283384936e+002 1.988315597307e+002 1.973264867846e+002 1.987414778391e+002 1.987113157493e+002 1.979572361746e+002 1.979186430433e+002 1.981401612609e+002 1.981003868893e+002 1.982738653075e+002 1.983108908674e+002 1.984682050354e+002 1.984342984099e+002 1.972889371853e+002 1.991359710958e+002 1.991359439440e+002 1.991375622189e+002 1.991375629539e+002 1.976556870251e+002 1.991371258829e+002 1.985195717394e+002 1.983670409809e+002 1.982008005190e+002 1.980221653931e+002 1.986003156873e+002 1.986572325980e+002 1.987290349940e+002 1.988413245745e+002 1.975165542149e+002 1.989364723703e+002 1.973065417889e+002 1.990138533078e+002 1.970915913737e+002 1.990729852340e+002 1.990729714361e+002 1.990138332881e+002 1.990926134529e+002 1.989363958842e+002 1.988412329336e+0