<?xml version="1.0"?>
<VTKFile type="UnstructuredGrid" version="0.1" byte_order="LittleEndian">
  <UnstructuredGrid>
    <Piece NumberOfPoints="2604" NumberOfCells="4910">
      <Points>
        <DataArray type="Float64" NumberOfComponents="3" format="ascii">
          0.000000000000e+000 0.000000000000e+000 0.000000000000e+000
          2.000000000000e+002 0.000000000000e+000 0.000000000000e+000
          2.000000000000e+002 2.000000000000e+001 0.000000000000e+000
          0.000000000000e+000 2.000000000000e+001 0.000000000000e+000
          1.492537313427e+000 0.000000000000e+000 0.000000000000e+000
          2.985074626854e+000 0.000000000000e+000 0.000000000000e+000
          4.477611940281e+000 0.000000000000e+000 0.000000000000e+000
          5.970149253708e+000 0.000000000000e+000 0.000000000000e+000
          7.462686567135e+000 0.000000000000e+000 0.000000000000e+000
          8.955223880561e+000 0.000000000000e+000 0.000000000000e+000
          1.044776119399e+001 0.000000000000e+000 0.000000000000e+000
          1.194029850741e+001 0.000000000000e+000 0.000000000000e+000
          1.343283582084e+001 0.000000000000e+000 0.000000000000e+000
          1.492537313427e+001 0.000000000000e+000 0.000000000000e+000
          1.641791044770e+001 0.000000000000e+000 0.000000000000e+000
          1.791044776112e+001 0.000000000000e+000 0.000000000000e+000
          1.940298507455e+001 0.000000000000e+000 0.000000000000e+000
          2.089552238798e+001 0.000000000000e+000 0.000000000000e+000
          2.238805970141e+001 0.000000000000e+000 0.000000000000e+000
          2.388059701484e+001 0.000000000000e+000 0.000000000000e+000
          2.537313432826e+001 0.000000000000e+000 0.000000000000e+000
          2.686567164169e+001 0.000000000000e+000 0.000000000000e+000
          2.835820895511e+001 0.000000000000e+000 0.000000000000e+000
          2.985074626854e+001 0.000000000000e+000 0.000000000000e+000
          3.134328358196e+001 0.000000000000e+000 0.000000000000e+000
          3.283582089539e+001 0.000000000000e+000 0.000000000000e+000
          3.432835820881e+001 0.000000000000e+000 0.000000000000e+000
          3.582089552224e+001 0.000000000000e+000 0.000000000000e+000
          3.731343283566e+001 0.000000000000e+000 0.000000000000e+000
          3.880597014909e+001 0.000000000000e+000 0.000000000000e+000
          4.029850746251e+001 0.000000000000e+000 0.000000000000e+000
          4.179104477594e+001 0.000000000000e+000 0.000000000000e+000
          4.328358208936e+001 0.000000000000e+000 0.000000000000e+000
          4.477611940279e+001 0.000000000000e+000 0.000000000000e+000
          4.626865671621e+001 0.000000000000e+000 0.000000000000e+000
          4.776119402964e+001 0.000000000000e+000 0.000000000000e+000
          4.925373134306e+001 0.000000000000e+000 0.000000000000e+000
          5.074626865649e+001 0.000000000000e+000 0.000000000000e+000
          5.223880596991e+001 0.000000000000e+000 0.000000000000e+000
          5.373134328334e+001 0.000000000000e+000 0.000000000000e+000
          5.522388059676e+001 0.000000000000e+000 0.000000000000e+000
          5.671641791019e+001 0.000000000000e+000 0.000000000000e+000
          5.820895522361e+001 0.000000000000e+000 0.000000000000e+000
          5.970149253704e+001 0.000000000000e+000 0.000000000000e+000
          6.119402985046e+001 0.000000000000e+000 0.000000000000e+000
          6.268656716389e+001 0.000000000000e+000 0.000000000000e+000
          6.417910447732e+001 0.000000000000e+000 0.000000000000e+000
          6.567164179075e+001 0.000000000000e+000 0.000000000000e+000
          6.716417910418e+001 0.000000000000e+000 0.000000000000e+000
          6.865671641761e+001 0.000000000000e+000 0.000000000000e+000
          7.014925373104e+001 0.000000000000e+000 0.000000000000e+000
          7.164179104447e+001 0.000000000000e+000 0.000000000000e+000
          7.313432835790e+001 0.000000000000e+000 0.000000000000e+000
          7.462686567133e+001 0.000000000000e+000 0.000000000000e+000
          7.611940298476e+001 0.000000000000e+000 0.000000000000e+000
          7.761194029819e+001 0.000000000000e+000 0.000000000000e+000
          7.910447761162e+001 0.000000000000e+000 0.000000000000e+000
          8.059701492505e+001 0.000000000000e+000 0.000000000000e+000
          8.208955223848e+001 0.000000000000e+000 0.000000000000e+000
          8.358208955191e+001 0.000000000000e+000 0.000000000000e+000
          8.507462686534e+001 0.000000000000e+000 0.000000000000e+000
          8.656716417877e+001 0.000000000000e+000 0.000000000000e+000
          8.805970149220e+001 0.000000000000e+000 0.000000000000e+000
          8.955223880563e+001 0.000000000000e+000 0.000000000000e+000
          9.104477611907e+001 0.000000000000e+000 0.000000000000e+000
          9.253731343250e+001 0.000000000000e+000 0.000000000000e+000
          9.402985074593e+001 0.000000000000e+000 0.000000000000e+000
          9.552238805936e+001 0.000000000000e+000 0.000000000000e+000
          9.701492537279e+001 0.000000000000e+000 0.000000000000e+000
          9.850746268622e+001 0.000000000000e+000 0.000000000000e+000
          9.999999999965e+001 0.000000000000e+000 0.000000000000e+000
          1.014925373131e+002 0.000000000000e+000 0.000000000000e+000
          1.029850746265e+002 0.000000000000e+000 0.000000000000e+000
          1.044776119399e+002 0.000000000000e+000 0.000000000000e+000
          1.059701492534e+002 0.000000000000e+000 0.000000000000e+000
          1.074626865668e+002 0.000000000000e+000 0.000000000000e+000
          1.089552238802e+002 0.000000000000e+000 0.000000000000e+000
          1.104477611937e+002 0.000000000000e+000 0.000000000000e+000
          1.119402985071e+002 0.000000000000e+000 0.000000000000e+000
          1.134328358205e+002 0.000000000000e+000 0.000000000000e+000
          1.149253731340e+002 0.000000000000e+000 0.000000000000e+000
          1.164179104474e+002 0.000000000000e+000 0.000000000000e+000
          1.179104477608e+002 0.000000000000e+000 0.000000000000e+000
          1.194029850742e+002 0.000000000000e+000 0.000000000000e+000
          1.208955223877e+002 0.000000000000e+000 0.000000000000e+000
          1.223880597011e+002 0.000000000000e+000 0.000000000000e+000
          1.238805970145e+002 0.000000000000e+000 0.000000000000e+000
          1.253731343280e+002 0.000000000000e+000 0.000000000000e+000
          1.268656716414e+002 0.000000000000e+000 0.000000000000e+000
          1.283582089548e+002 0.000000000000e+000 0.000000000000e+000
          1.298507462683e+002 0.000000000000e+000 0.000000000000e+000
          1.313432835817e+002 0.000000000000e+000 0.000000000000e+000
          1.328358208952e+002 0.000000000000e+000 0.000000000000e+000
          1.343283582086e+002 0.000000000000e+000 0.000000000000e+000
          1.358208955220e+002 0.000000000000e+000 0.000000000000e+000
          1.373134328355e+002 0.000000000000e+000 0.000000000000e+000
          1.388059701489e+002 0.000000000000e+000 0.000000000000e+000
          1.402985074624e+002 0.000000000000e+000 0.000000000000e+000
          1.417910447758e+002 0.000000000000e+000 0.000000000000e+000
          1.432835820892e+002 0.000000000000e+000 0.000000000000e+000
          1.447761194027e+002 0.000000000000e+000 0.000000000000e+000
          1.462686567161e+002 0.000000000000e+000 0.000000000000e+000
          1.477611940296e+002 0.000000000000e+000 0.000000000000e+000
          1.492537313430e+002 0.000000000000e+000 0.000000000000e+000
          1.507462686564e+002 0.000000000000e+000 0.000000000000e+000
          1.522388059699e+002 0.000000000000e+000 0.000000000000e+000
          1.537313432833e+002 0.000000000000e+000 0.000000000000e+000
          1.552238805968e+002 0.000000000000e+000 0.000000000000e+000
          1.567164179102e+002 0.000000000000e+000 0.000000000000e+000
          1.582089552237e+002 0.000000000000e+000 0.000000000000e+000
          1.597014925371e+002 0.000000000000e+000 0.000000000000e+000
          1.611940298505e+002 0.000000000000e+000 0.000000000000e+000
          1.626865671640e+002 0.000000000000e+000 0.000000000000e+000
          1.641791044774e+002 0.000000000000e+000 0.000000000000e+000
          1.656716417909e+002 0.000000000000e+000 0.000000000000e+000
          1.671641791043e+002 0.000000000000e+000 0.000000000000e+000
          1.686567164177e+002 0.000000000000e+000 0.000000000000e+000
          1.701492537312e+002 0.000000000000e+000 0.000000000000e+000
          1.716417910446e+002 0.000000000000e+000 0.000000000000e+000
          1.731343283581e+002 0.000000000000e+000 0.000000000000e+000
          1.746268656715e+002 0.000000000000e+000 0.000000000000e+000
          1.761194029849e+002 0.000000000000e+000 0.000000000000e+000
          1.776119402984e+002 0.000000000000e+000 0.000000000000e+000
          1.791044776118e+002 0.000000000000e+000 0.000000000000e+000
          1.805970149253e+002 0.000000000000e+000 0.000000000000e+000
          1.820895522387e+002 0.000000000000e+000 0.000000000000e+000
          1.835820895521e+002 0.000000000000e+000 0.000000000000e+000
          1.850746268656e+002 0.000000000000e+000 0.000000000000e+000
          1.865671641790e+002 0.000000000000e+000 0.000000000000e+000
          1.880597014925e+002 0.000000000000e+000 0.000000000000e+000
          1.895522388059e+002 0.000000000000e+000 0.000000000000e+000
          1.910447761194e+002 0.000000000000e+000 0.000000000000e+000
          1.925373134328e+002 0.000000000000e+000 0.000000000000e+000
          1.940298507462e+002 0.000000000000e+000 0.000000000000e+000
          1.955223880597e+002 0.000000000000e+000 0.000000000000e+000
          1.970149253731e+002 0.000000000000e+000 0.000000000000e+000
          1.985074626866e+002 0.000000000000e+000 0.000000000000e+000
          2.000000000000e+002 1.428571428570e+000 0.000000000000e+000
          2.000000000000e+002 2.857142857140e+000 0.000000000000e+000
[...]
      <PointData Scalars="MEAN_PRESSURE">
        <DataArray type="Float64" Name="MEAN_PRESSURE" format="ascii">
          2.000000000000e+002 1.999917917483e+002 1.999917915274e+002 2.000000000000e+002 1.989065675021e+002 1.973035161680e+002 1.965605906041e+002 1.962839005609e+002 1.962409632334e+002 1.962872663977e+002 1.963564600161e+002 1.964287138632e+002 1.964996073744e+002 1.965695055233e+002 1.966392038340e+002 1.967091033566e+002 1.967792612730e+002 1.968495922578e+002 1.969200022862e+002 1.969903884573e+002 1.970606717668e+002 1.971307362784e+002 1.972005319366e+002 1.972699918501e+002 1.973390555543e+002 1.974076531095e+002 1.974757476917e+002 1.975432826016e+002 1.976101965017e+002 1.976764504819e+002 1.977419978862e+002 1.978068172991e+002 1.978708453891e+002 1.979340588025e+002 1.979964212200e+002 1.980578906159e+002 1.981184566137e+002 1.981780644555e+002 1.982367064771e+002 1.982943686492e+002 1.983509971232e+002 1.984065573957e+002 1.984610786346e+002 1.985145137197e+002 1.985668644607e+002 1.986181078135e+002 1.986682543650e+002 1.987172315301e+002 1.987651200060e+002 1.988118430753e+002 1.988574123131e+002 1.989018393619e+002 1.989451450851e+002 1.989872421311e+002 1.990282233173e+002 1.990680651183e+002 1.991067849079e+002 1.991443484759e+002 1.991807824161e+002 1.992161549088e+002 1.992503665726e+002 1.992834931551e+002 1.993155416249e+002 1.993465452914e+002 1.993764894347e+002 1.994053984345e+002 1.994332921674e+002 1.994601779973e+002 1.994860919664e+002 1.995110304278e+002 1.995350441654e+002 1.995581152379e+002 1.995802940935e+002 1.996015856824e+002 1.996220119118e+002 1.996416069086e+002 1.996603738034e+002 1.996783588720e+002 1.996955628075e+002 1.997120178519e+002 1.997277323354e+002 1.997427513270e+002 1.997570773988e+002 1.997707460786e+002 1.997837685719e+002 1.997961702951e+002 1.998079765032e+002 1.998192047107e+002 1.998298760598e+002 1.998400124827e+002 1.998496339336e+002 1.998587612866e+002 1.998674141205e+002 1.998756082865e+002 1.998833606394e+002 1.998906992650e+002 1.998976318682e+002 1.999041809788e+002 1.999103640104e+002 1.999161984390e+002 1.999216967364e+002 1.999268728749e+002 1.999317487830e+002 1.999363314566e+002 1.999406385964e+002 1.999446840780e+002 1.999484816396e+002 1.999520412950e+002 1.999553739834e+002 1.999584960933e+002 1.999614133491e+002 1.999641387808e+002 1.999666831201e+002 1.999690568490e+002 1.999712662835e+002 1.999733198309e+002 1.999752293119e+002 1.999769987551e+002 1.999786372113e+002 1.999801519478e+002 1.999815502098e+002 1.999828368962e+002 1.999840168838e+002 1.999850964986e+002 1.999860805570e+002 1.999869729685e+002 1.999877797892e+002 1.999885046815e+002 1.999891489709e+002 1.999897186186e+002 1.999902157448e+002 1.999906382776e+002 1.999909932073e+002 1.999912814249e+002 1.999915076922e+002 1.999916596893e+002 1.999917572570e+002 1.999917883783e+002 1.999917852387e+002 1.999917920547e+002 1.999917906895e+002 1.999917900242e+002 1.999917887926e+002 1.999917879862e+002 1.999917885482e+002 1.999917886139e+002 1.999917870767e+002 1.999917913360e+002 1.999917848728e+002 1.999917881317e+002 1.999917570600e+002 1.999916595365e+002 1.999915075609e+002 1.999912812938e+002 1.999909931113e+002 1.999906383986e+002 1.999902160830e+002 1.999897190136e+002 1.999891493610e+002 1.999885050722e+002 1.999877799254e+002 1.999869731847e+002 1.999860805570e+002 1.999850962594e+002 1.999840167068e+002 1.999828364577e+002 1.999815496153e+002 1.999801535147e+002 1.999786385672e+002 1.999769991360e+002 1.999752292966e+002 1.999733204496e+002 1.999712651403e+002 1.999690568464e+002 1.999666845476e+002 1.999641407097e+002 1.999614134112e+002 1.999584955806e+002 1.999553729526e+002 1.999520407840e+002 1.999484807775e+002 1.999446847026e+002 1.999406397139e+002 1.999363297493e+002 1.999317476858e+002 1.999268717483e+002 1.999216965171e+002 1.999161975604e+002 1.999103648325e+002 1.999041819768e+002 1.998976287839e+002 1.998906973912e+002 1.998833592677e+002 1.998756083070e+002 1.998674135381e+002 1.998587581651e+002 1.998496350149e+002 1.998400131948e+002 1.998298763340e+002 1.998192045813e+002 1.998079782171e+002 1.997961766029e+002 1.997837739045e+002 1.997707456634e+002 1.997570840276e+002 1.997427515363e+002 1.997277340084e+002 1.997120111778e+002 1.996955660832e+002 1.996783587286e+002 1.996603831104e+002 1.996416111278e+002 1.996220154541e+002 1.996015808695e+002 1.995802888510e+002 1.995581195737e+002 1.995350414993e+002 1.995110387480e+002 1.994860887786e+002 1.994601785222e+002 1.994332850534e+002 1.994053944001e+002 1.993764914965e+002 1.993465478207e+002 1.993155530727e+002 1.992834895646e+002 1.992503505709e+002 1.992161184337e+002 1.991807852929e+002 1.991443472167e+002 1.991067797008e+002 1.990680795195e+002 1.990282351217e+002 1.989872507259e+002 1.989451154365e+002 1.989018357858e+002 1.988574092120e+002 1.988118116078e+002 1.987651018058e+002 1.987172461337e+002 1.986682429752e+002 1.986181282103e+002 1.985668665476e+002 1.985145032944e+002 1.984610622945e+002 1.984065323101e+002 1.983509407962e+002 1.982943128091e+002 1.982366586199e+002 1.981779957287e+002 1.981183699020e+002 1.980577830793e+002 1.979962750492e+002 1.979338762387e+002 1.978706200289e+002 1.978065297329e+002 1.977416357965e+002 1.976759898439e+002 1.976096084686e+002 1.975425376975e+002 1.974748163571e+002 1.974064857106e+002 1.973375760991e+002 1.972681220677e+002 1.971981647456e+002 1.971277388073e+002 1.970568782960e+002 1.969856095699e+002 1.969139749006e+002 1.968419721024e+002 1.967696586918e+002 1.966970022573e+002 1.966239507209e+002 1.965503088094e+002 1.964755401105e+002 1.963986981381e+002 1.963195470886e+002 1.962424804769e+002 1.961918573006e+002 1.962352772774e+002 1.965076610787e+002 1.972623335863e+002 1.988642536346e+002 2.000000000000e+002 2.000000000000e+002 2.000000000000e+002 2.000000000000e+002 2.000000000000e+002 2.000000000000e+002 2.000000000000e+002 2.000000000000e+002 2.000000000000e+002 2.000000000000e+002 2.000000000000e+002 2.000000000000e+002 2.000000000000e+002 1.999903448903e+002 1.962979720722e+002 1.999856303635e+002 1.999761626215e+002 1.999597933523e+002 1.999337836626e+002 1.998937721790e+002 1.971643114304e+002 1.998349984501e+002 1.976472741653e+002 1.980920147021e+002 1.984945451032e+002 1.990043814925e+002 1.992670308677e+002 1.994732305806e+002 1.996318938018e+002 1.997499812775e+002 1.967449569007e+002 1.987651164713e+002 1.997961626917e+002 1.997956160180e+002 1.996955645152e+002 1.995581167254e+002 1.993764931029e+002 1.991443542934e+002 1.999817536542e+002 1.999694036934e+002 1.999489054738e+002 1.991443323853e+002 1.993711771555e+002 1.995599400138e+002 1.996925195897e+002 1.999168534498e+002 1.998674048211e+002 1.974039606143e+002 1.978632766220e+002 1.983007612302e+002 1.998678043884e+002 1.999162483814e+002 1.999485140223e+002 1.999690526730e+002 1.999815474709e+002 1.982937192263e+002 1.978700088937e+002 1.974067380519e+002 1.999884327072e+002 1.999883894387e+002 1.986611183442e+002 1.988694033606e+002 1.965554711604e+002 1.969247937238e+002 1.999912909088e+002 1.962531875971e+002 1.999912988096e+002 1.962124699467e+002 1.965150406184e+002 1.969802661568e+002 1.986065659688e+002 1.989080994416e+002 1.999856013689e+002 1.997499872737e+002 1.999761286623e+002 1.996319143564e+002 1.994732564756e+002 1.992670564278e+002 1.990165604528e+002 1.998349015471e+002 1.999600253245e+002 1.999344771030e+002 1.998948250412e+002 1.976420837968e+002 1.980828656052e+002 1.998350961317e+002 1.998942056712e+002 1.999340700388e+002 1.999599757115e+002 1.992669649138e+002 1.994731820638e+002 1.996318521815e+002 1.999761284930e+002 1.997502377960e+002 1.999855998099e+002 1.984879306722e+002 1.980881893823e+002 1.976429489339e+002 1.971633756875e+002 1.999901591074e+002 1.999901899047e+002 1.963194317333e+002 1.972016154928e+002 1.990364358387e+002 1.984466781889e+002 1.999915292398e+002 1.965795945608e+002 1.967512200399e+002 1.963211188528e+002 1.967417386323e+002 1.987377945684e+002 1.986353263699e+002 1.988883692993e+002 1.965224167487e+002 1.969350345850e+002 1.987661785372e+002 1.999889541780e+002 1.999517000204e+002 1.999667661646e+002 1.999211697207e+002 1.999802004895e+002 1.998748023790e+002 1.997092726670e+002 1.994005733170e+002 1.991747033962e+002 1.995781236762e+002 1.974727437293e+002 1.982423030074e+002 1.978129481570e+002 1.997849688112e+002 1.987651058164e+002 1.999916302727e+002 1.971145396206e+002 1.999916302913e+002 1.970586860874e+002 1.997177306604e+002 1.995880233038e+002 1.994155170314e+002 1.991935958218e+002 1.998555165193e+002 1.997786310307e+002 1.998120626649e+002 1.999081705010e+002 1.983710328727e+002 1.999432508330e+002 1.979564158644e+002 1.999657820119e+002 1.974992968234e+002 1.999796169447e+002 1.999795609441e+002 1.999833563744e+002 1.999656875188e+002 1.999720592750e+002 1.999428802272e+002 1.999531275645e+002 1.999076030206e+002 1.999233832812e+002 1.975092142950e+002 1.998780844278e+002 1.998554896423e+002 1.979624427164e+002 1.977859905422e+002 1.991938373282e+002 1.994166814866e+002 1.995897454446e+002 1.993365797682e+002 1.995272373227e+002 1.997170253611e+002 1.996725915927e+002 1.982325110357e+002 1.998120905224e+002 1.997810692240e+002 1.999832723177e+002 1.973127563043e+002 1.999716990666e+002 1.977929241282e+002 1.999527576311e+002 1.982243626674e+002 1.999228072312e+002 1.990867314547e+002 1.993324104696e+002 1.995241086170e+002 1.996698603488e+002 1.998772694014e+002 1.967138788418e+002 1.999874506408e+002 1.999874147230e+002 1.989163984306e+002 1.985956332458e+002 1.970186076162e+002 1.998110864062e+002 1.995279299109e+002 1.996734086621e+002 1.993379968422e+002 1.990875006404e+002 1.973177648513e+002 1.979511394556e+002 1.999831970821e+002 1.983676749437e+002 1.999718399522e+002 1.999435964170e+002 1.998562992125e+002 1.999086997926e+002 1.973374024081e+002 1.999891724391e+002 1.999891722683e+002 1.988380032307e+002 1.964766399911e+002 1.999875265990e+002 1.998201892186e+002 1.998489229076e+002 1.999036929887e+002 1.984075378522e+002 1.999403186616e+002 1.980010552570e+002 1.993131892449e+002 1.995091964715e+002 1.996590041441e+002 1.999840385707e+002 1.972674635487e+002 1.999734712104e+002 1.968865345552e+002 1.990713772877e+002 1.999909784455e+002 1.999909388119e+002 1.999868688671e+002 1.991116244529e+002 1.983439987783e+002 1.989501098234e+002 1.985591637173e+002 1.961813317478e+002 1.970690600292e+002 1.964118460874e+002 1.966007909287e+002 1.970696446388e+002 1.997270022543e+002 1.996009241449e+002 1.994324133487e+002 1.992150143982e+002 1.999642773142e+002 1.975393127830e+002 1.999787232087e+002 1.997702149650e+002 1.998831700907e+002 1.999640378231e+002 1.999270948657e+002 1.999785780017e+002 1.999555141049e+002 1.997288337369e+002 1.996008733075e+002 1.994344157257e+002 1.992175535640e+002 1.975458986421e+002 1.981797647591e+002 1.977391807492e+002 1.977390150864e+002 1.999555098583e+002 1.981755324518e+002 1.999270798687e+002 1.998836699809e+002 1.997701851064e+002 1.999916464137e+002 1.999916557541e+002 1.972147862256e+002 1.970657433038e+002 1.999910505598e+002 1.962034840301e+002 1.999897141121e+002 1.999898062183e+002 1.962230144087e+002 1.999907317053e+002 1.963719450985e+002 1.962342917544e+002 1.985458867786e+002 1.989631280151e+002 1.971092261956e+002 1.964489862132e+002 1.985101770112e+002 1.968566009423e+002 1.968430665751e+002 1.989923704017e+002 1.966627334510e+002 1.986398880580e+002 1.988330459519e+002 1.966162897909e+002 1.979819735762e+002 1.998523191855e+002 1.999056586970e+002 1.999416062818e+002 1.999730979442e+002 1.999839000635e+002 1.998160584892e+002 1.990763360808e+002 1.993219791089e+002 1.995160227862e+002 1.996641230442e+002 1.986927064007e+002 1.968561489795e+002 1.988425189603e+002 1.986793711774e+002 1.999870830771e+002 1.999906103131e+002 1.972866104102e+002 1.983814993859e+002 1.962424524069e+002 1.961943131601e+002 1.999912209543e+002 1.966444456367e+002 1.997420412676e+002 1.996210459411e+002 1.994589079056e+002 1.992487343927e+002 1.998397622035e+002 1.998301165047e+002 1.997579381888e+002 1.998979354502e+002 1.999365310583e+002 1.984585086117e+002 1.999615397393e+002 1.980548901288e+002 1.999770746091e+002 1.976064762799e+002 1.999850704529e+002 1.999770160500e+002 1.999615861854e+002 1.999366668693e+002 1.998981393821e+002 1.976059710774e+002 1.980530903758e+002 1.992499739219e+002 1.994587022466e+002 1.996208907269e+002 1.999850458364e+002 1.972015416392e+002 1.990320604378e+002 1.999856744727e+002 1.999899659747e+002 1.999899664690e+002 1.972341937177e+002 1.970517816581e+002 1.963567938253e+002 1.988160427727e+002 1.999822758950e+002 1.999703001672e+002 1.999464010404e+002 1.999129991389e+002 1.998618982722e+002 1.973688368470e+002 1.979058950326e+002 1.983258677820e+002 1.996866569867e+002 1.993609550138e+002 1.991251492207e+002 1.995433873792e+002 1.998038303557e+002 1.999880375891e+002 1.999913678975e+002 1.999913680744e+002 1.999758256255e+002 1.999348010603e+002 1.998953155772e+002 1.980785485731e+002 1.992726669159e+002 1.994776418556e+002 1.996352263954e+002 1.962887935319e+002 1.987141666955e+002 1.998368918100e+002 1.998331612381e+002 1.990156330513e+002 1.999917189400e+002 1.979647403045e+002 1.984205678458e+002 1.990590826207e+002 1.998670913674e+002 1.999159807595e+002 1.999483399561e+002 1.999815481699e+002 1.999690588930e+002 1.982964155787e+002 1.978729765914e+002 1.974065136268e+002 1.995581126430e+002 1.996955622005e+002 1.991443343769e+002 1.993764836292e+002 1.999815470268e+002 1.999690542786e+002 1.993764603896e+002 1.995584826566e+002 1.999484750927e+002 1.996956948066e+002 1.999161897313e+002 1.998674810152e+002 1.978708182744e+002 1.997966130569e+002 1.997961608311e+002 1.968132163993e+002 1.985601153857e+002 1.967869334143e+002 1.990910567803e+002 1.987769547447e+002 1.999893424312e+002 1.999892846278e+002 1.989007594137e+002 1.989254574402e+002 1.987985254855e+002 1.998442270803e+002 1.997363506000e+002 1.997630596075e+002 1.998253345605e+002 1.996498035970e+002 1.994969697308e+002 1.992974543963e+002 1.998875787844e+002 1.977048174625e+002 1.981443035569e+002 1.999745438661e+002 1.999571716709e+002 1.999296778731e+002 1.999744220577e+002 1.977044294124e+002 1.999571732844e+002 1.981442271868e+002 1.992974644710e+002 1.994969782130e+002 1.996471737358e+002 1.999296795143e+002 1.998875802150e+002 1.964065283085e+002 1.964350798353e+002 1.999914060886e+002 1.963593474949e+002 1.997505113385e+002 1.997494617167e+002 1.976413772506e+002 1.976406106818e+002 1.999600810327e+002 1.999600571676e+002 1.999908677383e+002 1.966625541456e+002 1.962888364469e+002 1.972054041985e+002 1.967359706409e+002 1.999917248611e+002 1.980858463945e+002 1.999917286371e+002 1.979504036768e+002 1.965585518805e+002 1.999864433826e+002 1.999864604545e+002 1.998940127838e+002 1.999339423245e+002 1.980899184272e+002 1.996310497054e+002 1.992655925217e+002 1.994721054554e+002 1.999761459763e+002 1.969688904814e+002 1.969813765940e+002 1.964148026335e+002 1.989713012381e+002 1.985350841135e+002 1.964191637677e+002 1.971010701205e+002 1.974230248605e+002 1.986290050272e+002 1.970347330741e+002 1.999883433287e+002 1.999883434908e+002 1.985913213123e+002 1.989395089814e+002 1.999874154774e+002 1.984474697241e+002 1.989472053343e+002 1.988967674082e+002 1.999719185851e+002 1.973134859535e+002 1.999832603566e+002 1.993135013502e+002 1.995089997208e+002 1.996591850491e+002 1.998208407673e+002 1.979586949923e+002 1.999431053244e+002 1.983725344860e+002 1.999079478655e+002 1.998482133626e+002 1.999855729715e+002 1.968454977575e+002 1.988386887790e+002 1.987268880952e+002 1.984863625628e+002 1.965632341962e+002 1.999917345192e+002 1.982237006206e+002 1.999917347259e+002 1.983727703948e+002 1.961978143878e+002 1.971667456163e+002 1.987578036499e+002 1.986305927222e+002 1.999909002201e+002 1.982739013370e+002 1.991550050034e+002 1.969754576742e+002 1.989769986071e+002 1.966842002453e+002 1.998778328170e+002 1.999231846926e+002 1.999530015170e+002 1.982200783151e+002 1.977882133790e+002 1.999557467105e+002 1.999784703715e+002 1.999274569088e+002 1.999638659963e+002 1.998842447884e+002 1.977342373995e+002 1.981710704269e+002 1.975504625667e+002 1.992197770203e+002 1.996040170148e+002 1.994361105887e+002 1.997295364527e+002 1.999795219545e+002 1.999656232379e+002 1.975036531785e+002 1.997801115503e+002 1.991908764204e+002 1.994133648289e+002 1.995863776630e+002 1.997165106897e+002 1.997693608355e+002 1.997961666006e+002 1.996955339595e+002 1.993764524083e+002 1.995581083405e+002 1.991443134734e+002 1.999815491592e+002 1.999690549566e+002 1.999485283376e+002 1.998674089034e+002 1.999162713786e+002 1.974075795270e+002 1.978698156258e+002 1.982942741916e+002 1.985300529092e+002 1.970785097660e+002 1.999908424441e+002 1.962134344603e+002 1.997677658961e+002 1.997311124919e+002 1.996058344670e+002 1.994388811955e+002 1.992232329760e+002 1.999634491053e+002 1.999782322192e+002 1.975601870177e+002 1.999560720558e+002 1.999278676642e+002 1.998847897222e+002 1.977273067727e+002 1.981666208075e+002 1.987490281893e+002 1.999884332759e+002 1.987104171102e+002 1.999889341327e+002 1.997945448544e+002 1.997972103109e+002 1.996991543274e+002 1.995628798509e+002 1.993827853835e+002 1.991522786395e+002 1.999813695271e+002 1.999687487387e+002 1.999477953358e+002 1.999151431850e+002 1.998685163412e+002 1.978825197715e+002 1.998666818820e+002 1.993803757746e+002 1.995550939223e+002 1.996977828159e+002 1.999158201295e+002 1.999482353750e+002 1.982979911312e+002 1.999690812012e+002 1.978747506413e+002 1.999815642593e+002 1.974056991253e+002 1.967464717753e+002 1.999670986863e+002 1.974634690163e+002 1.999803974867e+002 1.993990987760e+002 1.997084393913e+002 1.995766477281e+002 1.991728398539e+002 1.978218568931e+002 1.999512052194e+002 1.982503917115e+002 1.999204043551e+002 1.998735253762e+002 1.997869948147e+002 1.962915092933e+002 1.999917298670e+002 1.981433686004e+002 1.999896329084e+002 1.999905453020e+002 1.999905448279e+002 1.986995158221e+002 1.988284592684e+002 1.969546743388e+002 1.974170891139e+002 1.999869132336e+002 1.962575117655e+002 1.999883390250e+002 1.999883193483e+002 1.971442539370e+002 1.998478708042e+002 1.999030855127e+002 1.984140861857e+002 1.999399198935e+002 1.980069642375e+002 1.996604891286e+002 1.995092055270e+002 1.993157474981e+002 1.998206586276e+002 1.999841993358e+002 1.972508107742e+002 1.999736580584e+002 1.984844361960e+002 1.990121044893e+002 1.986667717222e+002 1.965429128000e+002 1.963927572958e+002 1.999915581074e+002 1.967157845637e+002 1.999915580219e+002 1.966304142297e+002 1.991575079813e+002 1.982755094344e+002 1.990586111659e+002 1.966041920033e+002 1.999846266104e+002 1.963642019964e+002 1.986018980025e+002 1.988761166421e+002 1.986586247620e+002 1.969334431371e+002 1.965453574106e+002 1.967632642813e+002 1.983591022268e+002 1.965430410039e+002 1.968379432944e+002 1.986891280996e+002 1.963209330742e+002 1.964717680720e+002 1.987919388168e+002 1.985726808129e+002 1.988855267674e+002 1.986233399153e+002 1.999901878206e+002 1.962227395816e+002 1.972952381946e+002 1.998052901953e+002 1.998247425310e+002 1.999845960802e+002 1.999743734836e+002 1.999826710424e+002 1.999708820869e+002 1.999400295039e+002 1.999032517735e+002 1.980056192631e+002 1.998608280030e+002 1.998447725270e+002 1.991087850035e+002 1.990532502035e+002 1.993485131284e+002 1.992997530104e+002 1.994987592770e+002 1.995365897059e+002 1.996794261443e+002 1.996510962402e+002 1.962051074959e+002 1.999912776704e+002 1.999912731145e+002 1.999915387144e+002 1.999915388135e+002 1.963986717157e+002 1.999914672902e+002 1.997198660134e+002 1.995909129835e+002 1.994192950120e+002 1.991983749239e+002 1.997773833878e+002 1.998135955217e+002 1.998543158054e+002 1.999073552769e+002 1.983785295131e+002 1.999427181602e+002 1.979648063420e+002 1.999654483633e+002 1.975083507039e+002 1.999794188796e+002 1.999794163109e+002 1.999654439678e+002 1.999834392007e+002 1.999426928355e+002 1.999073163215e+0