<?xml version="1.0"?>
<VTKFile type="UnstructuredGrid" version="0.1" byte_order="LittleEndian">
  <UnstructuredGrid>
    <Piece NumberOfPoints="2604" NumberOfCells="4910">
      <Points>
        <DataArray type="Float64" NumberOfComponents="3" format="ascii">
          0.000000000000e+000 0.000000000000e+000 0.000000000000e+000
          2.000000000000e+002 0.000000000000e+000 0.000000000000e+000
          2.000000000000e+002 2.000000000000e+001 0.000000000000e+000
          0.000000000000e+000 2.000000000000e+001 0.000000000000e+000
          1.492537313427e+000 0.000000000000e+000 0.000000000000e+000
          2.985074626854e+000 0.000000000000e+000 0.000000000000e+000
          4.477611940281e+000 0.000000000000e+000 0.000000000000e+000
          5.970149253708e+000 0.000000000000e+000 0.000000000000e+000
          7.462686567135e+000 0.000000000000e+000 0.000000000000e+000
          8.955223880561e+000 0.000000000000e+000 0.000000000000e+000
          1.044776119399e+001 0.000000000000e+000 0.000000000000e+000
          1.194029850741e+001 0.000000000000e+000 0.000000000000e+000
          1.343283582084e+001 0.000000000000e+000 0.000000000000e+000
          1.492537313427e+001 0.000000000000e+000 0.000000000000e+000
          1.641791044770e+001 0.000000000000e+000 0.000000000000e+000
          1.791044776112e+001 0.000000000000e+000 0.000000000000e+000
          1.940298507455e+001 0.000000000000e+000 0.000000000000e+000
          2.089552238798e+001 0.000000000000e+000 0.000000000000e+000
          2.238805970141e+001 0.000000000000e+000 0.000000000000e+000
          2.388059701484e+001 0.000000000000e+000 0.000000000000e+000
          2.537313432826e+001 0.000000000000e+000 0.000000000000e+000
          2.686567164169e+001 0.000000000000e+000 0.000000000000e+000
          2.835820895511e+001 0.000000000000e+000 0.000000000000e+000
          2.985074626854e+001 0.000000000000e+000 0.000000000000e+000
          3.134328358196e+001 0.000000000000e+000 0.000000000000e+000
          3.283582089539e+001 0.000000000000e+000 0.000000000000e+000
          3.432835820881e+001 0.000000000000e+000 0.000000000000e+000
          3.582089552224e+001 0.000000000000e+000 0.000000000000e+000
          3.731343283566e+001 0.000000000000e+000 0.000000000000e+000
          3.880597014909e+001 0.000000000000e+000 0.000000000000e+000
          4.029850746251e+001 0.000000000000e+000 0.000000000000e+000
          4.179104477594e+001 0.000000000000e+000 0.000000000000e+000
          4.328358208936e+001 0.000000000000e+000 0.000000000000e+000
          4.477611940279e+001 0.000000000000e+000 0.000000000000e+000
          4.626865671621e+001 0.000000000000e+000 0.000000000000e+000
          4.776119402964e+001 0.000000000000e+000 0.000000000000e+000
          4.925373134306e+001 0.000000000000e+000 0.000000000000e+000
          5.074626865649e+001 0.000000000000e+000 0.000000000000e+000
          5.223880596991e+001 0.000000000000e+000 0.000000000000e+000
          5.373134328334e+001 0.000000000000e+000 0.000000000000e+000
          5.522388059676e+001 0.000000000000e+000 0.000000000000e+000
          5.671641791019e+001 0.000000000000e+000 0.000000000000e+000
          5.820895522361e+001 0.000000000000e+000 0.000000000000e+000
          5.970149253704e+001 0.000000000000e+000 0.000000000000e+000
          6.119402985046e+001 0.000000000000e+000 0.000000000000e+000
          6.268656716389e+001 0.000000000000e+000 0.000000000000e+000
          6.417910447732e+001 0.000000000000e+000 0.000000000000e+000
          6.567164179075e+001 0.000000000000e+000 0.000000000000e+000
          6.716417910418e+001 0.000000000000e+000 0.000000000000e+000
          6.865671641761e+001 0.000000000000e+000 0.000000000000e+000
          7.014925373104e+001 0.000000000000e+000 0.000000000000e+000
          7.164179104447e+001 0.000000000000e+000 0.000000000000e+000
          7.313432835790e+001 0.000000000000e+000 0.000000000000e+000
          7.462686567133e+001 0.000000000000e+000 0.000000000000e+000
          7.611940298476e+001 0.000000000000e+000 0.000000000000e+000
          7.761194029819e+001 0.000000000000e+000 0.000000000000e+000
          7.910447761162e+001 0.000000000000e+000 0.000000000000e+000
          8.059701492505e+001 0.000000000000e+000 0.000000000000e+000
          8.208955223848e+001 0.000000000000e+000 0.000000000000e+000
          8.358208955191e+001 0.000000000000e+000 0.000000000000e+000
          8.507462686534e+001 0.000000000000e+000 0.000000000000e+000
          8.656716417877e+001 0.000000000000e+000 0.000000000000e+000
          8.805970149220e+001 0.000000000000e+000 0.000000000000e+000
          8.955223880563e+001 0.000000000000e+000 0.000000000000e+000
          9.104477611907e+001 0.000000000000e+000 0.000000000000e+000
          9.253731343250e+001 0.000000000000e+000 0.000000000000e+000
          9.402985074593e+001 0.000000000000e+000 0.000000000000e+000
          9.552238805936e+001 0.000000000000e+000 0.000000000000e+000
          9.701492537279e+001 0.000000000000e+000 0.000000000000e+000
          9.850746268622e+001 0.000000000000e+000 0.000000000000e+000
          9.999999999965e+001 0.000000000000e+000 0.000000000000e+000
          1.014925373131e+002 0.000000000000e+000 0.000000000000e+000
          1.029850746265e+002 0.000000000000e+000 0.000000000000e+000
          1.044776119399e+002 0.000000000000e+000 0.000000000000e+000
          1.059701492534e+002 0.000000000000e+000 0.000000000000e+000
          1.074626865668e+002 0.000000000000e+000 0.000000000000e+000
          1.089552238802e+002 0.000000000000e+000 0.000000000000e+000
          1.104477611937e+002 0.000000000000e+000 0.000000000000e+000
          1.119402985071e+002 0.000000000000e+000 0.000000000000e+000
          1.134328358205e+002 0.000000000000e+000 0.000000000000e+000
          1.149253731340e+002 0.000000000000e+000 0.000000000000e+000
          1.164179104474e+002 0.000000000000e+000 0.000000000000e+000
          1.179104477608e+002 0.000000000000e+000 0.000000000000e+000
          1.194029850742e+002 0.000000000000e+000 0.000000000000e+000
          1.208955223877e+002 0.000000000000e+000 0.000000000000e+000
          1.223880597011e+002 0.000000000000e+000 0.000000000000e+000
          1.238805970145e+002 0.000000000000e+000 0.000000000000e+000
          1.253731343280e+002 0.000000000000e+000 0.000000000000e+000
          1.268656716414e+002 0.000000000000e+000 0.000000000000e+000
          1.283582089548e+002 0.000000000000e+000 0.000000000000e+000
          1.298507462683e+002 0.000000000000e+000 0.000000000000e+000
          1.313432835817e+002 0.000000000000e+000 0.000000000000e+000
          1.328358208952e+002 0.000000000000e+000 0.000000000000e+000
          1.343283582086e+002 0.000000000000e+000 0.000000000000e+000
          1.358208955220e+002 0.000000000000e+000 0.000000000000e+000
          1.373134328355e+002 0.000000000000e+000 0.000000000000e+000
          1.388059701489e+002 0.000000000000e+000 0.000000000000e+000
          1.402985074624e+002 0.000000000000e+000 0.000000000000e+000
          1.417910447758e+002 0.000000000000e+000 0.000000000000e+000
          1.432835820892e+002 0.000000000000e+000 0.000000000000e+000
          1.447761194027e+002 0.000000000000e+000 0.000000000000e+000
          1.462686567161e+002 0.000000000000e+000 0.000000000000e+000
          1.477611940296e+002 0.000000000000e+000 0.000000000000e+000
          1.492537313430e+002 0.000000000000e+000 0.000000000000e+000
          1.507462686564e+002 0.000000000000e+000 0.000000000000e+000
          1.522388059699e+002 0.000000000000e+000 0.000000000000e+000
          1.537313432833e+002 0.000000000000e+000 0.000000000000e+000
          1.552238805968e+002 0.000000000000e+000 0.000000000000e+000
          1.567164179102e+002 0.000000000000e+000 0.000000000000e+000
          1.582089552237e+002 0.000000000000e+000 0.000000000000e+000
          1.597014925371e+002 0.000000000000e+000 0.000000000000e+000
          1.611940298505e+002 0.000000000000e+000 0.000000000000e+000
          1.626865671640e+002 0.000000000000e+000 0.000000000000e+000
          1.641791044774e+002 0.000000000000e+000 0.000000000000e+000
          1.656716417909e+002 0.000000000000e+000 0.000000000000e+000
          1.671641791043e+002 0.000000000000e+000 0.000000000000e+000
          1.686567164177e+002 0.000000000000e+000 0.000000000000e+000
          1.701492537312e+002 0.000000000000e+000 0.000000000000e+000
          1.716417910446e+002 0.000000000000e+000 0.000000000000e+000
          1.731343283581e+002 0.000000000000e+000 0.000000000000e+000
          1.746268656715e+002 0.000000000000e+000 0.000000000000e+000
          1.761194029849e+002 0.000000000000e+000 0.000000000000e+000
          1.776119402984e+002 0.000000000000e+000 0.000000000000e+000
          1.791044776118e+002 0.000000000000e+000 0.000000000000e+000
          1.805970149253e+002 0.000000000000e+000 0.000000000000e+000
          1.820895522387e+002 0.000000000000e+000 0.000000000000e+000
          1.835820895521e+002 0.000000000000e+000 0.000000000000e+000
          1.850746268656e+002 0.000000000000e+000 0.000000000000e+000
          1.865671641790e+002 0.000000000000e+000 0.000000000000e+000
          1.880597014925e+002 0.000000000000e+000 0.000000000000e+000
          1.895522388059e+002 0.000000000000e+000 0.000000000000e+000
          1.910447761194e+002 0.000000000000e+000 0.000000000000e+000
          1.925373134328e+002 0.000000000000e+000 0.000000000000e+000
          1.940298507462e+002 0.000000000000e+000 0.000000000000e+000
          1.955223880597e+002 0.000000000000e+000 0.000000000000e+000
          1.970149253731e+002 0.000000000000e+000 0.000000000000e+000
          1.985074626866e+002 0.000000000000e+000 0.000000000000e+000
          2.000000000000e+002 1.428571428570e+000 0.000000000000e+000
          2.000000000000e+002 2.857142857140e+000 0.000000000000e+000
[...]
      <PointData Scalars="MEAN_PRESSURE">
        <DataArray type="Float64" Name="MEAN_PRESSURE" format="ascii">
          2.000000000000e+002 1.991980263766e+002 1.991980248528e+002 2.000000000000e+002 1.994838575445e+002 1.984551884553e+002 1.977662130955e+002 1.972916601873e+002 1.969836571351e+002 1.968004274411e+002 1.966989809523e+002 1.966554125829e+002 1.966476855512e+002 1.966617068383e+002 1.966874637109e+002 1.967193129826e+002 1.967536551881e+002 1.967886127261e+002 1.968233185374e+002 1.968574507226e+002 1.968909925903e+002 1.969239866378e+002 1.969565903152e+002 1.969889118648e+002 1.970210341043e+002 1.970530116164e+002 1.970848854244e+002 1.971166760937e+002 1.971483911333e+002 1.971800352744e+002 1.972116068242e+002 1.972431035698e+002 1.972745174327e+002 1.973058441143e+002 1.973370770907e+002 1.973682089178e+002 1.973992356937e+002 1.974301482075e+002 1.974609426221e+002 1.974916143546e+002 1.975221536871e+002 1.975525527639e+002 1.975828122743e+002 1.976129224774e+002 1.976428801543e+002 1.976726784303e+002 1.977023151590e+002 1.977317753807e+002 1.977610673038e+002 1.977901746724e+002 1.978190947239e+002 1.978478245656e+002 1.978763629995e+002 1.979046894671e+002 1.979328148896e+002 1.979607296491e+002 1.979884313145e+002 1.980159070795e+002 1.980431556556e+002 1.980701848603e+002 1.980969668875e+002 1.981235105545e+002 1.981498101817e+002 1.981758660667e+002 1.982016668540e+002 1.982272103673e+002 1.982524932887e+002 1.982775086858e+002 1.983022573961e+002 1.983267291455e+002 1.983509291967e+002 1.983748422589e+002 1.983984739157e+002 1.984218154584e+002 1.984448632049e+002 1.984676180771e+002 1.984900699078e+002 1.985122245427e+002 1.985340703195e+002 1.985556080117e+002 1.985768285384e+002 1.985977386893e+002 1.986183267115e+002 1.986385960161e+002 1.986585385095e+002 1.986781529045e+002 1.986974386747e+002 1.987163910296e+002 1.987350074594e+002 1.987532860984e+002 1.987712243798e+002 1.987888204830e+002 1.988060721972e+002 1.988229746340e+002 1.988395239419e+002 1.988557257722e+002 1.988715695419e+002 1.988870576951e+002 1.989021887267e+002 1.989169619257e+002 1.989313717205e+002 1.989454145128e+002 1.989590965083e+002 1.989724071083e+002 1.989853493612e+002 1.989979222516e+002 1.990101255559e+002 1.990219539844e+002 1.990334042771e+002 1.990444832512e+002 1.990551803523e+002 1.990654989153e+002 1.990754391775e+002 1.990850021462e+002 1.990941803143e+002 1.991029717636e+002 1.991113844305e+002 1.991194075540e+002 1.991270448506e+002 1.991342964895e+002 1.991411641847e+002 1.991476432881e+002 1.991537299486e+002 1.991594267446e+002 1.991647325308e+002 1.991696438095e+002 1.991741681767e+002 1.991783048906e+002 1.991820429856e+002 1.991853966165e+002 1.991883624625e+002 1.991909148054e+002 1.991930798967e+002 1.991948530105e+002 1.991962542814e+002 1.991972010831e+002 1.991978104902e+002 1.991980052868e+002 1.991979856486e+002 1.991980282977e+002 1.991980197401e+002 1.991980155462e+002 1.991980078503e+002 1.991980028001e+002 1.991980063017e+002 1.991980067056e+002 1.991979970741e+002 1.991980236915e+002 1.991979832297e+002 1.991980036047e+002 1.991978091176e+002 1.991971999929e+002 1.991962533378e+002 1.991948520795e+002 1.991930791781e+002 1.991909153363e+002 1.991883642032e+002 1.991853986040e+002 1.991820448460e+002 1.991783066216e+002 1.991741685958e+002 1.991696445393e+002 1.991647323000e+002 1.991594254845e+002 1.991537290142e+002 1.991476414148e+002 1.991411618483e+002 1.991343015020e+002 1.991270489634e+002 1.991194085983e+002 1.991113841780e+002 1.991029729975e+002 1.990941770539e+002 1.990850016005e+002 1.990754419677e+002 1.990655026785e+002 1.990551803286e+002 1.990444820834e+002 1.990334020857e+002 1.990219526987e+002 1.990101238142e+002 1.989979229242e+002 1.989853506321e+002 1.989724045718e+002 1.989590948647e+002 1.989454128966e+002 1.989313712760e+002 1.989169609210e+002 1.989021896880e+002 1.988870587664e+002 1.988715668006e+002 1.988557242047e+002 1.988395228691e+002 1.988229747991e+002 1.988060719535e+002 1.987888183862e+002 1.987712253124e+002 1.987532867551e+002 1.987350077764e+002 1.987163910360e+002 1.986974396760e+002 1.986781563712e+002 1.986585413306e+002 1.986385958298e+002 1.986183300131e+002 1.985977388778e+002 1.985768292573e+002 1.985556050418e+002 1.985340714825e+002 1.985122242608e+002 1.984900732437e+002 1.984676194240e+002 1.984448642478e+002 1.984218135664e+002 1.983984719450e+002 1.983748433896e+002 1.983509280955e+002 1.983267313353e+002 1.983022562361e+002 1.982775085950e+002 1.982524911463e+002 1.982272090955e+002 1.982016671465e+002 1.981758664494e+002 1.981498126915e+002 1.981235095871e+002 1.980969632229e+002 1.980701769118e+002 1.980431560473e+002 1.980159065654e+002 1.979884299670e+002 1.979607319394e+002 1.979328165111e+002 1.979046902832e+002 1.978763568759e+002 1.978478227929e+002 1.978190927366e+002 1.977901676128e+002 1.977610618493e+002 1.977317743851e+002 1.977023092386e+002 1.976726760482e+002 1.976428735913e+002 1.976129122512e+002 1.975827988782e+002 1.975525352165e+002 1.975221282238e+002 1.974915842247e+002 1.974609073647e+002 1.974301026130e+002 1.973991781474e+002 1.973681363858e+002 1.973369842394e+002 1.973057270489e+002 1.972743700717e+002 1.972429167207e+002 1.972113708684e+002 1.971797368578e+002 1.971480127851e+002 1.971161971338e+002 1.970842815030e+002 1.970522494197e+002 1.970200691211e+002 1.969876918162e+002 1.969550437897e+002 1.969220208460e+002 1.968884940780e+002 1.968543089459e+002 1.968193728566e+002 1.967836410902e+002 1.967474315959e+002 1.967115618037e+002 1.966778714726e+002 1.966496544079e+002 1.966334126069e+002 1.966387453157e+002 1.966804635665e+002 1.967768624580e+002 1.969621831882e+002 1.972724340498e+002 1.977450852952e+002 1.984413792114e+002 1.994663724433e+002 2.000000000000e+002 2.000000000000e+002 2.000000000000e+002 2.000000000000e+002 2.000000000000e+002 2.000000000000e+002 2.000000000000e+002 2.000000000000e+002 2.000000000000e+002 2.000000000000e+002 2.000000000000e+002 2.000000000000e+002 2.000000000000e+002 1.991891404037e+002 1.967160178994e+002 1.991622959155e+002 1.991155960814e+002 1.990492028160e+002 1.989649580058e+002 1.988626927079e+002 1.969394387458e+002 1.987441818960e+002 1.971660279791e+002 1.973856434856e+002 1.976016266923e+002 1.979163785204e+002 1.981102612708e+002 1.982899096244e+002 1.984562708813e+002 1.986080644717e+002 1.967359245993e+002 1.977610658056e+002 1.986781485630e+002 1.986772548507e+002 1.985340708630e+002 1.983748426759e+002 1.982016677306e+002 1.980159081481e+002 1.991421741363e+002 1.990864183386e+002 1.990115251137e+002 1.980159038144e+002 1.981970577716e+002 1.983767602439e+002 1.985301723865e+002 1.989186661830e+002 1.988060654607e+002 1.970512301412e+002 1.972707872466e+002 1.974950530266e+002 1.988068640199e+002 1.989171018425e+002 1.990102395620e+002 1.990849922196e+002 1.991411543919e+002 1.974912769163e+002 1.972740834073e+002 1.970524185865e+002 1.991778916251e+002 1.991776433071e+002 1.976980830621e+002 1.978267986560e+002 1.966526142724e+002 1.968248782105e+002 1.991949113844e+002 1.972843982792e+002 1.991949604965e+002 1.972840950705e+002 1.966468549765e+002 1.968523906183e+002 1.976659005191e+002 1.978519072899e+002 1.991621332719e+002 1.986080672114e+002 1.991154375680e+002 1.984562781711e+002 1.982899168268e+002 1.981102668715e+002 1.979247488086e+002 1.987440054284e+002 1.990500606947e+002 1.989669752098e+002 1.988650973972e+002 1.971635863985e+002 1.973809602443e+002 1.987443588921e+002 1.988636843420e+002 1.989657909523e+002 1.990498723044e+002 1.981102197746e+002 1.982898715530e+002 1.984562339091e+002 1.991154376262e+002 1.986084385084e+002 1.991621267662e+002 1.975978776168e+002 1.973836785123e+002 1.971639324701e+002 1.969388275362e+002 1.991880232482e+002 1.991882078611e+002 1.966765746146e+002 1.969570402795e+002 1.979385251274e+002 1.975747716016e+002 1.991963885937e+002 1.978221126821e+002 1.967395269753e+002 1.967255749610e+002 1.967336208440e+002 1.977442964207e+002 1.976827973683e+002 1.978390667968e+002 1.966455128849e+002 1.968301551499e+002 1.977617245637e+002 1.991809059023e+002 1.990208091264e+002 1.990757827396e+002 1.989299756538e+002 1.991345400287e+002 1.988213200981e+002 1.985519938290e+002 1.982229223632e+002 1.980385814602e+002 1.983961654063e+002 1.970834003156e+002 1.974639180229e+002 1.972460804055e+002 1.986604476790e+002 1.977610634273e+002 1.991970175817e+002 1.983068022948e+002 1.991970175541e+002 1.982794234207e+002 1.985632686781e+002 1.984068947779e+002 1.982363284486e+002 1.980528986424e+002 1.987825171324e+002 1.986505963340e+002 1.987042851630e+002 1.988967757630e+002 1.975330818660e+002 1.989934308496e+002 1.973169901453e+002 1.990718934610e+002 1.970958135993e+002 1.991317193965e+002 1.991314432555e+002 1.991503097631e+002 1.990715097895e+002 1.990975548786e+002 1.989922638869e+002 1.990256616178e+002 1.988953686987e+002 1.989359145322e+002 1.971006075301e+002 1.988282163540e+002 1.987824676588e+002 1.973200178658e+002 1.972329607995e+002 1.980530387093e+002 1.982373591404e+002 1.984087689688e+002 1.981674420672e+002 1.983430069764e+002 1.985623182959e+002 1.985050690072e+002 1.974587267262e+002 1.987043354942e+002 1.986543592706e+002 1.991498741855e+002 1.970085178969e+002 1.990960176673e+002 1.972362874829e+002 1.990243909968e+002 1.974544261068e+002 1.989343540655e+002 1.979740085255e+002 1.981639003067e+002 1.983398209869e+002 1.985016650431e+002 1.988264846007e+002 1.967202416365e+002 1.991723140522e+002 1.991721128025e+002 1.978573645148e+002 1.976595480721e+002 1.968702455329e+002 1.987026449896e+002 1.983437164468e+002 1.985060912058e+002 1.981686472879e+002 1.979745718802e+002 1.970109987824e+002 1.973143608662e+002 1.991494903455e+002 1.975312398071e+002 1.990966167402e+002 1.989945081154e+002 1.987840325822e+002 1.988980735679e+002 1.970202486229e+002 1.991821796934e+002 1.991821789789e+002 1.978067238345e+002 1.966335873185e+002 1.991727406315e+002 1.987180861063e+002 1.987698906627e+002 1.988858858545e+002 1.975530875358e+002 1.989843728184e+002 1.973393992003e+002 1.981478569779e+002 1.983249109402e+002 1.984884061312e+002 1.991538419258e+002 1.969874880993e+002 1.991036289926e+002 1.968068121520e+002 1.979630879272e+002 1.991929888515e+002 1.991927466675e+002 1.991690639744e+002 1.979919519334e+002 1.975183651553e+002 1.978797036542e+002 1.976384470534e+002 1.969537263414e+002 1.968944785726e+002 1.966372235428e+002 1.966715693258e+002 1.968951791420e+002 1.985758309345e+002 1.984210812499e+002 1.982516946441e+002 1.980693254730e+002 1.990660263616e+002 1.971147089469e+002 1.991274477646e+002 1.986377687115e+002 1.988390801414e+002 1.990650948437e+002 1.989460086135e+002 1.991267546554e+002 1.990338845001e+002 1.985783427559e+002 1.984210167524e+002 1.982535398411e+002 1.980712989301e+002 1.971178674106e+002 1.974310127162e+002 1.972102184297e+002 1.972101190175e+002 1.990338769122e+002 1.974288233476e+002 1.989459905494e+002 1.988402041279e+002 1.986377531994e+002 1.991971180367e+002 1.991971763573e+002 1.983966117676e+002 1.982940199059e+002 1.991934319778e+002 1.970092351918e+002 1.991853690486e+002 1.991859169883e+002 1.968102416502e+002 1.991914828312e+002 1.966668325050e+002 1.970477095329e+002 1.976308039292e+002 1.978883753035e+002 1.969137095506e+002 1.966493254123e+002 1.976104575647e+002 1.967909937575e+002 1.967850650532e+002 1.979081698866e+002 1.966967929305e+002 1.976854819592e+002 1.978035705914e+002 1.966745627645e+002 1.973298004025e+002 1.987763199996e+002 1.988906163561e+002 1.989883121522e+002 1.991020021337e+002 1.991531176929e+002 1.987109980091e+002 1.979665977278e+002 1.981551659694e+002 1.983317063327e+002 1.984946315249e+002 1.977169726727e+002 1.967911037966e+002 1.978095854526e+002 1.977089465135e+002 1.991702543175e+002 1.991907455689e+002 1.969965551021e+002 1.975387990858e+002 1.968578977528e+002 1.971743650172e+002 1.991944798385e+002 1.966878366979e+002 1.985967543265e+002 1.984437780309e+002 1.982763314829e+002 1.980957032727e+002 1.987528403538e+002 1.987354470149e+002 1.986196011912e+002 1.988722935178e+002 1.989730116113e+002 1.975813790074e+002 1.990556621244e+002 1.973666752292e+002 1.991197633637e+002 1.971465331030e+002 1.991592896116e+002 1.991194898387e+002 1.990558318088e+002 1.989734158483e+002 1.988727749872e+002 1.971463837341e+002 1.973657775196e+002 1.980966768570e+002 1.982761350728e+002 1.984435976423e+002 1.991591591528e+002 1.969566363206e+002 1.979354817703e+002 1.991625299216e+002 1.991868691699e+002 1.991868717804e+002 1.969722479011e+002 1.968864297595e+002 1.966536139813e+002 1.977928345821e+002 1.991448011197e+002 1.990901366423e+002 1.990033947746e+002 1.989088046233e+002 1.987950124515e+002 1.970347546310e+002 1.972918329606e+002 1.975085586484e+002 1.985226824693e+002 1.981882047388e+002 1.980017954201e+002 1.983594950256e+002 1.986905956271e+002 1.991756302837e+002 1.991953875213e+002 1.991953887170e+002 1.991140640891e+002 1.989679178200e+002 1.988662199799e+002 1.973787478746e+002 1.981147758958e+002 1.982941197473e+002 1.984601406983e+002 1.974303341934e+002 1.977299232252e+002 1.987475918361e+002 1.987408676825e+002 1.979241037153e+002 1.991975709248e+002 1.989016622347e+002 1.975602805919e+002 1.979543726532e+002 1.988054298557e+002 1.989164116647e+002 1.990096708208e+002 1.991411569058e+002 1.990850163012e+002 1.974927200075e+002 1.972755401685e+002 1.970522713397e+002 1.983748412796e+002 1.985340698905e+002 1.980159040359e+002 1.982016652575e+002 1.991411528378e+002 1.990849956885e+002 1.982016596918e+002 1.983752492504e+002 1.990101147251e+002 1.985342640920e+002 1.989169523322e+002 1.988062239774e+002 1.972745104744e+002 1.986788721188e+002 1.986781476728e+002 1.967694661995e+002 1.976389984836e+002 1.967574144477e+002 1.979771370596e+002 1.977683985673e+002 1.991831773940e+002 1.991828382941e+002 1.978471314958e+002 1.978633440936e+002 1.977818285478e+002 1.987610714272e+002 1.985887497120e+002 1.986271171241e+002 1.987270111905e+002 1.984773457967e+002 1.983128539478e+002 1.981348928138e+002 1.988487726683e+002 1.971936650860e+002 1.974125929021e+002 1.991083432179e+002 1.990397426271e+002 1.989532318523e+002 1.991077989075e+002 1.971934110029e+002 1.990397458761e+002 1.974125434950e+002 1.981348949458e+002 1.983128561267e+002 1.984742216290e+002 1.989532340845e+002 1.988487737983e+002 1.975546406397e+002 1.966338891749e+002 1.991956244764e+002 1.975108163486e+002 1.986088202730e+002 1.986073138206e+002 1.971632301260e+002 1.971628323788e+002 1.990502605219e+002 1.990501708395e+002 1.991923123646e+002 1.966954865646e+002 1.967918866835e+002 1.969587048848e+002 1.967306659233e+002 1.991976079687e+002 1.989963370784e+002 1.991976314642e+002 1.989253384610e+002 1.966561093832e+002 1.991667185069e+002 1.991668126643e+002 1.988632400311e+002 1.989654175008e+002 1.973845652538e+002 1.984552776968e+002 1.981090996119e+002 1.982888266164e+002 1.991155182027e+002 1.968464887555e+002 1.968530852602e+002 1.966455915137e+002 1.978938999455e+002 1.976246388713e+002 1.966536546382e+002 1.969094629489e+002 1.970601850901e+002 1.976790832216e+002 1.968780566231e+002 1.991773763475e+002 1.991773769242e+002 1.976570373141e+002 1.978726417085e+002 1.991721145416e+002 1.975752145785e+002 1.978777700725e+002 1.978445281391e+002 1.990969548768e+002 1.970088902281e+002 1.991498154618e+002 1.981481200664e+002 1.983247135934e+002 1.984886298644e+002 1.987192118028e+002 1.973181331461e+002 1.989929772860e+002 1.975338979521e+002 1.988962294891e+002 1.987685429417e+002 1.991619853227e+002 1.967860528437e+002 1.978071562386e+002 1.977376467804e+002 1.975970059723e+002 1.966555710754e+002 1.991976682148e+002 1.990685800291e+002 1.991976696439e+002 1.991473374132e+002 1.968747404783e+002 1.969404966867e+002 1.977565714428e+002 1.976800083294e+002 1.991925110660e+002 1.974806819740e+002 1.980238242642e+002 1.968499765206e+002 1.978977605263e+002 1.967074749195e+002 1.988276923112e+002 1.989353796602e+002 1.990252285064e+002 1.974521773380e+002 1.972340030809e+002 1.990347178006e+002 1.991262584309e+002 1.989470377464e+002 1.990644517239e+002 1.988414494220e+002 1.972078514559e+002 1.974265044673e+002 1.971200528631e+002 1.980730115306e+002 1.984245387432e+002 1.982550881516e+002 1.985793071128e+002 1.991312631790e+002 1.990712704616e+002 1.970978796760e+002 1.986528978019e+002 1.980508395442e+002 1.982344000687e+002 1.984051131070e+002 1.985616458655e+002 1.986365176581e+002 1.986781507770e+002 1.985340583244e+002 1.982016576656e+002 1.983748401574e+002 1.980158999782e+002 1.991411599754e+002 1.990849971302e+002 1.990102895171e+002 1.988060685218e+002 1.989171637314e+002 1.970528942393e+002 1.972740036871e+002 1.974915634586e+002 1.976217853957e+002 1.968992958510e+002 1.991921582568e+002 1.968704865495e+002 1.986341323198e+002 1.985814816863e+002 1.984265718105e+002 1.982576537560e+002 1.980757018026e+002 1.990628636288e+002 1.991251418578e+002 1.971246027819e+002 1.990358715341e+002 1.989481841262e+002 1.988426540060e+002 1.972044929945e+002 1.974241903903e+002 1.977511838440e+002 1.991778946380e+002 1.977276621138e+002 1.991807912819e+002 1.986755593200e+002 1.986798278537e+002 1.985387366026e+002 1.983798840763e+002 1.982071956268e+002 1.980218032725e+002 1.991402690955e+002 1.990837480899e+002 1.990078966510e+002 1.989142599888e+002 1.988083283502e+002 1.972802802255e+002 1.988045952366e+002 1.982050714533e+002 1.983716793701e+002 1.985369454095e+002 1.989160033814e+002 1.990093336003e+002 1.974935691155e+002 1.990851116985e+002 1.972764215968e+002 1.991412392227e+002 1.970519096649e+002 1.967369309087e+002 1.990770975364e+002 1.970790134443e+002 1.991354930856e+002 1.982216108583e+002 1.985508909363e+002 1.983945505048e+002 1.980371812963e+002 1.972504429990e+002 1.990191616036e+002 1.974682005838e+002 1.989279669775e+002 1.988186473101e+002 1.986636024152e+002 1.967394656091e+002 1.991976391887e+002 1.990107155049e+002 1.991848893759e+002 1.991903515902e+002 1.991903489861e+002 1.977210771506e+002 1.978006758996e+002 1.968393103994e+002 1.970573953020e+002 1.991693135740e+002 1.967484221501e+002 1.991773537216e+002 1.991772407022e+002 1.969302891530e+002 1.987678957016e+002 1.988844265563e+002 1.975566950832e+002 1.989831562048e+002 1.973423789101e+002 1.984902280831e+002 1.983249350571e+002 1.981499988049e+002 1.987189063603e+002 1.991546844855e+002 1.969797897823e+002 1.991044436940e+002 1.975958956595e+002 1.979216574256e+002 1.977014293183e+002 1.966543209096e+002 1.966692441756e+002 1.991965680832e+002 1.979686740193e+002 1.991965676599e+002 1.979145370863e+002 1.980256725074e+002 1.974815410049e+002 1.979540356048e+002 1.966728507036e+002 1.991569335473e+002 1.975005090516e+002 1.976632041655e+002 1.978311282320e+002 1.976965896177e+002 1.968290005807e+002 1.966487951490e+002 1.967448238033e+002 1.975265705757e+002 1.966477940506e+002 1.967826431173e+002 1.977148304221e+002 1.966789878758e+002 1.966421370623e+002 1.977777243311e+002 1.976462507365e+002 1.978372049002e+002 1.976757369963e+002 1.991881956892e+002 1.969899458626e+002 1.970006083034e+002 1.986929821571e+002 1.987259707550e+002 1.991567700281e+002 1.991075827827e+002 1.991467955038e+002 1.990925588666e+002 1.989834707426e+002 1.988848009493e+002 1.973416943127e+002 1.987928773526e+002 1.987620817928e+002 1.979898988290e+002 1.979502836145e+002 1.981775612320e+002 1.981367728284e+002 1.983146035787e+002 1.983525330124e+002 1.985135806490e+002 1.984788847106e+002 1.972518530600e+002 1.991948294375e+002 1.991948018284e+002 1.991964472650e+002 1.991964480120e+002 1.976181813883e+002 1.991960036084e+002 1.985661265791e+002 1.984100362052e+002 1.982397284806e+002 1.980565305761e+002 1.986486815523e+002 1.987068425224e+002 1.987801741486e+002 1.988947606823e+002 1.975371638461e+002 1.989917591816e+002 1.973211786733e+002 1.990705767673e+002 1.971000630950e+002 1.991307632173e+002 1.991307491829e+002 1.990705563944e+002 1.991507329276e+002 1.989916812412e+002 1.988946672082e+0