<?xml version="1.0"?>
<VTKFile type="UnstructuredGrid" version="0.1" byte_order="LittleEndian">
  <UnstructuredGrid>
    <Piece NumberOfPoints="2604" NumberOfCells="4910">
      <Points>
        <DataArray type="Float64" NumberOfComponents="3" format="ascii">
          0.000000000000e+000 0.000000000000e+000 0.000000000000e+000
          2.000000000000e+002 0.000000000000e+000 0.000000000000e+000
          2.000000000000e+002 2.000000000000e+001 0.000000000000e+000
          0.000000000000e+000 2.000000000000e+001 0.000000000000e+000
          1.492537313427e+000 0.000000000000e+000 0.000000000000e+000
          2.985074626854e+000 0.000000000000e+000 0.000000000000e+000
          4.477611940281e+000 0.000000000000e+000 0.000000000000e+000
          5.970149253708e+000 0.000000000000e+000 0.000000000000e+000
          7.462686567135e+000 0.000000000000e+000 0.000000000000e+000
          8.955223880561e+000 0.000000000000e+000 0.000000000000e+000
          1.044776119399e+001 0.000000000000e+000 0.000000000000e+000
          1.194029850741e+001 0.000000000000e+000 0.000000000000e+000
          1.343283582084e+001 0.000000000000e+000 0.000000000000e+000
          1.492537313427e+001 0.000000000000e+000 0.000000000000e+000
          1.641791044770e+001 0.000000000000e+000 0.000000000000e+000
          1.791044776112e+001 0.000000000000e+000 0.000000000000e+000
          1.940298507455e+001 0.000000000000e+000 0.000000000000e+000
          2.089552238798e+001 0.000000000000e+000 0.000000000000e+000
          2.238805970141e+001 0.000000000000e+000 0.000000000000e+000
          2.388059701484e+001 0.000000000000e+000 0.000000000000e+000
          2.537313432826e+001 0.000000000000e+000 0.000000000000e+000
          2.686567164169e+001 0.000000000000e+000 0.000000000000e+000
          2.835820895511e+001 0.000000000000e+000 0.000000000000e+000
          2.985074626854e+001 0.000000000000e+000 0.000000000000e+000
          3.134328358196e+001 0.000000000000e+000 0.000000000000e+000
          3.283582089539e+001 0.000000000000e+000 0.000000000000e+000
          3.432835820881e+001 0.000000000000e+000 0.000000000000e+000
          3.582089552224e+001 0.000000000000e+000 0.000000000000e+000
          3.731343283566e+001 0.000000000000e+000 0.000000000000e+000
          3.880597014909e+001 0.000000000000e+000 0.000000000000e+000
          4.029850746251e+001 0.000000000000e+000 0.000000000000e+000
          4.179104477594e+001 0.000000000000e+000 0.000000000000e+000
          4.328358208936e+001 0.000000000000e+000 0.000000000000e+000
          4.477611940279e+001 0.000000000000e+000 0.000000000000e+000
          4.626865671621e+001 0.000000000000e+000 0.000000000000e+000
          4.776119402964e+001 0.000000000000e+000 0.000000000000e+000
          4.925373134306e+001 0.000000000000e+000 0.000000000000e+000
          5.074626865649e+001 0.000000000000e+000 0.000000000000e+000
          5.223880596991e+001 0.000000000000e+000 0.000000000000e+000
          5.373134328334e+001 0.000000000000e+000 0.000000000000e+000
          5.522388059676e+001 0.000000000000e+000 0.000000000000e+000
          5.671641791019e+001 0.000000000000e+000 0.000000000000e+000
          5.820895522361e+001 0.000000000000e+000 0.000000000000e+000
          5.970149253704e+001 0.000000000000e+000 0.000000000000e+000
          6.119402985046e+001 0.000000000000e+000 0.000000000000e+000
          6.268656716389e+001 0.000000000000e+000 0.000000000000e+000
          6.417910447732e+001 0.000000000000e+000 0.000000000000e+000
          6.567164179075e+001 0.000000000000e+000 0.000000000000e+000
          6.716417910418e+001 0.000000000000e+000 0.000000000000e+000
          6.865671641761e+001 0.000000000000e+000 0.000000000000e+000
          7.014925373104e+001 0.000000000000e+000 0.000000000000e+000
          7.164179104447e+001 0.000000000000e+000 0.000000000000e+000
          7.313432835790e+001 0.000000000000e+000 0.000000000000e+000
          7.462686567133e+001 0.000000000000e+000 0.000000000000e+000
          7.611940298476e+001 0.000000000000e+000 0.000000000000e+000
          7.761194029819e+001 0.000000000000e+000 0.000000000000e+000
          7.910447761162e+001 0.000000000000e+000 0.000000000000e+000
          8.059701492505e+001 0.000000000000e+000 0.000000000000e+000
          8.208955223848e+001 0.000000000000e+000 0.000000000000e+000
          8.358208955191e+001 0.000000000000e+000 0.000000000000e+000
          8.507462686534e+001 0.000000000000e+000 0.000000000000e+000
          8.656716417877e+001 0.000000000000e+000 0.000000000000e+000
          8.805970149220e+001 0.000000000000e+000 0.000000000000e+000
          8.955223880563e+001 0.000000000000e+000 0.000000000000e+000
          9.104477611907e+001 0.000000000000e+000 0.000000000000e+000
          9.253731343250e+001 0.000000000000e+000 0.000000000000e+000
          9.402985074593e+001 0.000000000000e+000 0.000000000000e+000
          9.552238805936e+001 0.000000000000e+000 0.000000000000e+000
          9.701492537279e+001 0.000000000000e+000 0.000000000000e+000
          9.850746268622e+001 0.000000000000e+000 0.000000000000e+000
          9.999999999965e+001 0.000000000000e+000 0.000000000000e+000
          1.014925373131e+002 0.000000000000e+000 0.000000000000e+000
          1.029850746265e+002 0.000000000000e+000 0.000000000000e+000
          1.044776119399e+002 0.000000000000e+000 0.000000000000e+000
          1.059701492534e+002 0.000000000000e+000 0.000000000000e+000
          1.074626865668e+002 0.000000000000e+000 0.000000000000e+000
          1.089552238802e+002 0.000000000000e+000 0.000000000000e+000
          1.104477611937e+002 0.000000000000e+000 0.000000000000e+000
          1.119402985071e+002 0.000000000000e+000 0.000000000000e+000
          1.134328358205e+002 0.000000000000e+000 0.000000000000e+000
          1.149253731340e+002 0.000000000000e+000 0.000000000000e+000
          1.164179104474e+002 0.000000000000e+000 0.000000000000e+000
          1.179104477608e+002 0.000000000000e+000 0.000000000000e+000
          1.194029850742e+002 0.000000000000e+000 0.000000000000e+000
          1.208955223877e+002 0.000000000000e+000 0.000000000000e+000
          1.223880597011e+002 0.000000000000e+000 0.000000000000e+000
          1.238805970145e+002 0.000000000000e+000 0.000000000000e+000
          1.253731343280e+002 0.000000000000e+000 0.000000000000e+000
          1.268656716414e+002 0.000000000000e+000 0.000000000000e+000
          1.283582089548e+002 0.000000000000e+000 0.000000000000e+000
          1.298507462683e+002 0.000000000000e+000 0.000000000000e+000
          1.313432835817e+002 0.000000000000e+000 0.000000000000e+000
          1.328358208952e+002 0.000000000000e+000 0.000000000000e+000
          1.343283582086e+002 0.000000000000e+000 0.000000000000e+000
          1.358208955220e+002 0.000000000000e+000 0.000000000000e+000
          1.373134328355e+002 0.000000000000e+000 0.000000000000e+000
          1.388059701489e+002 0.000000000000e+000 0.000000000000e+000
          1.402985074624e+002 0.000000000000e+000 0.000000000000e+000
          1.417910447758e+002 0.000000000000e+000 0.000000000000e+000
          1.432835820892e+002 0.000000000000e+000 0.000000000000e+000
          1.447761194027e+002 0.000000000000e+000 0.000000000000e+000
          1.462686567161e+002 0.000000000000e+000 0.000000000000e+000
          1.477611940296e+002 0.000000000000e+000 0.000000000000e+000
          1.492537313430e+002 0.000000000000e+000 0.000000000000e+000
          1.507462686564e+002 0.000000000000e+000 0.000000000000e+000
          1.522388059699e+002 0.000000000000e+000 0.000000000000e+000
          1.537313432833e+002 0.000000000000e+000 0.000000000000e+000
          1.552238805968e+002 0.000000000000e+000 0.000000000000e+000
          1.567164179102e+002 0.000000000000e+000 0.000000000000e+000
          1.582089552237e+002 0.000000000000e+000 0.000000000000e+000
          1.597014925371e+002 0.000000000000e+000 0.000000000000e+000
          1.611940298505e+002 0.000000000000e+000 0.000000000000e+000
          1.626865671640e+002 0.000000000000e+000 0.000000000000e+000
          1.641791044774e+002 0.000000000000e+000 0.000000000000e+000
          1.656716417909e+002 0.000000000000e+000 0.000000000000e+000
          1.671641791043e+002 0.000000000000e+000 0.000000000000e+000
          1.686567164177e+002 0.000000000000e+000 0.000000000000e+000
          1.701492537312e+002 0.000000000000e+000 0.000000000000e+000
          1.716417910446e+002 0.000000000000e+000 0.000000000000e+000
          1.731343283581e+002 0.000000000000e+000 0.000000000000e+000
          1.746268656715e+002 0.000000000000e+000 0.000000000000e+000
          1.761194029849e+002 0.000000000000e+000 0.000000000000e+000
          1.776119402984e+002 0.000000000000e+000 0.000000000000e+000
          1.791044776118e+002 0.000000000000e+000 0.000000000000e+000
          1.805970149253e+002 0.000000000000e+000 0.000000000000e+000
          1.820895522387e+002 0.000000000000e+000 0.000000000000e+000
          1.835820895521e+002 0.000000000000e+000 0.000000000000e+000
          1.850746268656e+002 0.000000000000e+000 0.000000000000e+000
          1.865671641790e+002 0.000000000000e+000 0.000000000000e+000
          1.880597014925e+002 0.000000000000e+000 0.000000000000e+000
          1.895522388059e+002 0.000000000000e+000 0.000000000000e+000
          1.910447761194e+002 0.000000000000e+000 0.000000000000e+000
          1.925373134328e+002 0.000000000000e+000 0.000000000000e+000
          1.940298507462e+002 0.000000000000e+000 0.000000000000e+000
          1.955223880597e+002 0.000000000000e+000 0.000000000000e+000
          1.970149253731e+002 0.000000000000e+000 0.000000000000e+000
          1.985074626866e+002 0.000000000000e+000 0.000000000000e+000
          2.000000000000e+002 1.428571428570e+000 0.000000000000e+000
          2.000000000000e+002 2.857142857140e+000 0.000000000000e+000
[...]
      <PointData Scalars="MEAN_PRESSURE">
        <DataArray type="Float64" Name="MEAN_PRESSURE" format="ascii">
          2.000000000000e+002 1.988760740750e+002 1.988760727142e+002 2.000000000000e+002 1.995432314200e+002 1.986014491734e+002 1.979492262018e+002 1.974783489475e+002 1.971526843767e+002 1.969409360713e+002 1.968080917511e+002 1.967349530204e+002 1.967019959059e+002 1.966960550748e+002 1.967066681623e+002 1.967275312027e+002 1.967539251867e+002 1.967830072207e+002 1.968130839572e+002 1.968432383920e+002 1.968730509672e+002 1.969023221081e+002 1.969310860490e+002 1.969594116435e+002 1.969873857080e+002 1.970150819331e+002 1.970425725878e+002 1.970699069589e+002 1.970971169069e+002 1.971242279512e+002 1.971512536354e+002 1.971782027296e+002 1.972050750672e+002 1.972318716463e+002 1.972585898275e+002 1.972852252283e+002 1.973117756386e+002 1.973382341686e+002 1.973645980054e+002 1.973908635976e+002 1.974170232239e+002 1.974430705726e+002 1.974690061808e+002 1.974948221946e+002 1.975205159713e+002 1.975460819282e+002 1.975715182635e+002 1.975968128718e+002 1.976219722426e+002 1.976469831966e+002 1.976718433834e+002 1.976965503357e+002 1.977211029483e+002 1.977454844678e+002 1.977697035394e+002 1.977937522161e+002 1.978176283443e+002 1.978413213409e+002 1.978648299392e+002 1.978881602796e+002 1.979112895123e+002 1.979342245520e+002 1.979569605140e+002 1.979794973812e+002 1.980018255923e+002 1.980239430761e+002 1.980458468158e+002 1.980675308046e+002 1.980889954134e+002 1.981102318540e+002 1.981312441301e+002 1.981520192641e+002 1.981725615172e+002 1.981928633142e+002 1.982129212156e+002 1.982327356078e+002 1.982522976393e+002 1.982716117893e+002 1.982906679156e+002 1.983094662506e+002 1.983279987679e+002 1.983462707333e+002 1.983642718478e+002 1.983820045439e+002 1.983994615613e+002 1.984166413548e+002 1.984335430348e+002 1.984501620899e+002 1.984664959338e+002 1.984825425179e+002 1.984982992000e+002 1.985137639637e+002 1.985289344603e+002 1.985438060397e+002 1.985583749330e+002 1.985726455168e+002 1.985866082406e+002 1.986002647393e+002 1.986136132545e+002 1.986266527172e+002 1.986393778543e+002 1.986517850946e+002 1.986638793638e+002 1.986756510238e+002 1.986871022813e+002 1.986982318183e+002 1.987090390161e+002 1.987195188359e+002 1.987296680119e+002 1.987394920985e+002 1.987489814577e+002 1.987581386217e+002 1.987669634197e+002 1.987754563713e+002 1.987836105100e+002 1.987914237929e+002 1.987989028773e+002 1.988060379433e+002 1.988128319569e+002 1.988192847665e+002 1.988253976030e+002 1.988311660765e+002 1.988365865096e+002 1.988416609356e+002 1.988463881043e+002 1.988507646875e+002 1.988547972333e+002 1.988584848989e+002 1.988618177525e+002 1.988648082416e+002 1.988674532720e+002 1.988697297962e+002 1.988716610953e+002 1.988732428693e+002 1.988744930041e+002 1.988753377327e+002 1.988758814543e+002 1.988760552580e+002 1.988760377362e+002 1.988760757891e+002 1.988760681536e+002 1.988760644114e+002 1.988760575450e+002 1.988760530390e+002 1.988760561631e+002 1.988760565235e+002 1.988760479298e+002 1.988760716783e+002 1.988760355770e+002 1.988760537560e+002 1.988758802285e+002 1.988753367589e+002 1.988744921612e+002 1.988732420379e+002 1.988716604532e+002 1.988697302681e+002 1.988674548222e+002 1.988648100111e+002 1.988618194080e+002 1.988584864379e+002 1.988547976040e+002 1.988507653341e+002 1.988463878969e+002 1.988416598136e+002 1.988365856777e+002 1.988311644123e+002 1.988253955295e+002 1.988192892033e+002 1.988128355945e+002 1.988060388658e+002 1.987989026519e+002 1.987914248763e+002 1.987836076301e+002 1.987754558825e+002 1.987669658680e+002 1.987581419236e+002 1.987489814348e+002 1.987394910716e+002 1.987296660869e+002 1.987195177037e+002 1.987090374878e+002 1.986982324000e+002 1.986871033822e+002 1.986756488124e+002 1.986638779308e+002 1.986517836869e+002 1.986393774648e+002 1.986266518470e+002 1.986136140878e+002 1.986002656660e+002 1.985866058836e+002 1.985726441718e+002 1.985583740145e+002 1.985438061856e+002 1.985289342577e+002 1.985137621775e+002 1.984983000015e+002 1.984825430833e+002 1.984664962083e+002 1.984501620985e+002 1.984335438846e+002 1.984166442887e+002 1.983994639456e+002 1.983820043880e+002 1.983642746317e+002 1.983462708955e+002 1.983279993712e+002 1.983094637586e+002 1.982906688831e+002 1.982716115466e+002 1.982523004150e+002 1.982327367227e+002 1.982129220755e+002 1.981928617343e+002 1.981725598743e+002 1.981520201905e+002 1.981312432087e+002 1.981102336497e+002 1.980889944462e+002 1.980675307183e+002 1.980458450428e+002 1.980239420193e+002 1.980018258171e+002 1.979794976772e+002 1.979569625469e+002 1.979342237428e+002 1.979112865030e+002 1.978881537827e+002 1.978648302202e+002 1.978413208762e+002 1.978176271913e+002 1.977937539929e+002 1.977697047522e+002 1.977454850013e+002 1.977210978454e+002 1.976965487035e+002 1.976718415249e+002 1.976469771841e+002 1.976219674340e+002 1.975968115358e+002 1.975715128275e+002 1.975460791484e+002 1.975205096080e+002 1.974948126012e+002 1.974689936782e+002 1.974430542761e+002 1.974169999904e+002 1.973908358821e+002 1.973645652244e+002 1.973381919082e+002 1.973117222903e+002 1.972851579442e+002 1.972585038148e+002 1.972317631378e+002 1.972049383994e+002 1.971780293785e+002 1.971510345881e+002 1.971239506427e+002 1.970967648696e+002 1.970694610100e+002 1.970420111135e+002 1.970143745822e+002 1.969864906109e+002 1.969582806310e+002 1.969296503080e+002 1.969004965409e+002 1.968707382440e+002 1.968403453863e+002 1.968094635513e+002 1.967784668458e+002 1.967482496865e+002 1.967205054159e+002 1.966980546703e+002 1.966851565480e+002 1.966893368104e+002 1.967203301219e+002 1.967920486333e+002 1.969202665883e+002 1.971340809506e+002 1.974616971015e+002 1.979309350230e+002 1.985896577486e+002 1.995275918447e+002 2.000000000000e+002 2.000000000000e+002 2.000000000000e+002 2.000000000000e+002 2.000000000000e+002 2.000000000000e+002 2.000000000000e+002 2.000000000000e+002 2.000000000000e+002 2.000000000000e+002 2.000000000000e+002 2.000000000000e+002 2.000000000000e+002 1.988681471268e+002 1.968401254348e+002 1.988442171285e+002 1.988026481528e+002 1.987436783975e+002 1.986690625685e+002 1.985787845415e+002 1.969159382463e+002 1.984745491164e+002 1.971122176764e+002 1.973001415100e+002 1.974851361577e+002 1.977555485848e+002 1.979227754079e+002 1.980782849879e+002 1.982228535721e+002 1.983552980260e+002 1.967394839810e+002 1.976219708810e+002 1.984166376761e+002 1.984158544329e+002 1.982906683652e+002 1.981520196065e+002 1.980018263036e+002 1.978413221751e+002 1.988262966487e+002 1.987767143038e+002 1.987102789044e+002 1.978413186810e+002 1.979978362683e+002 1.981536860424e+002 1.982872671804e+002 1.986281575711e+002 1.985289287051e+002 1.970135320469e+002 1.972018816170e+002 1.973938085004e+002 1.985296309550e+002 1.986267763916e+002 1.987091400979e+002 1.987754476288e+002 1.988253889217e+002 1.973905733085e+002 1.972046955694e+002 1.970145293966e+002 1.988581164724e+002 1.988578950975e+002 1.975678854091e+002 1.976784675017e+002 1.966875788198e+002 1.968143322446e+002 1.988732949443e+002 1.974733774090e+002 1.988733387608e+002 1.974759518787e+002 1.966950144408e+002 1.968387261798e+002 1.975402653725e+002 1.977000620111e+002 1.988440721652e+002 1.983553003283e+002 1.988025071406e+002 1.982228596350e+002 1.980782909152e+002 1.979227799646e+002 1.977627565216e+002 1.984743941764e+002 1.987444394982e+002 1.986708465845e+002 1.985809037129e+002 1.971101339206e+002 1.972961355603e+002 1.984747045080e+002 1.985796584551e+002 1.986697992241e+002 1.987442723057e+002 1.979227397719e+002 1.980782521205e+002 1.982228215753e+002 1.988025071992e+002 1.983556251521e+002 1.988440663858e+002 1.974819210467e+002 1.972984584231e+002 1.971104141406e+002 1.969153688977e+002 1.988671507394e+002 1.988673153901e+002 1.967877231969e+002 1.969314781758e+002 1.977746220864e+002 1.974621134645e+002 1.988746128371e+002 1.980050103320e+002 1.967425101395e+002 1.968472282167e+002 1.967372846837e+002 1.976075663267e+002 1.975547654380e+002 1.976890179161e+002 1.966900085456e+002 1.968190311111e+002 1.976225367558e+002 1.988608038792e+002 1.987185043842e+002 1.987672686347e+002 1.986381448131e+002 1.988195015860e+002 1.985423504107e+002 1.983063114049e+002 1.980202297455e+002 1.978608830276e+002 1.981705548782e+002 1.970412702506e+002 1.973671447635e+002 1.971807426134e+002 1.984011339254e+002 1.976219688501e+002 1.988751740121e+002 1.984633554041e+002 1.988751739863e+002 1.984388102025e+002 1.983161556517e+002 1.981798848197e+002 1.980318414999e+002 1.978732386974e+002 1.985082234122e+002 1.983925080528e+002 1.984395458463e+002 1.986088373699e+002 1.974263850937e+002 1.986942555829e+002 1.972413990988e+002 1.987638153228e+002 1.970519383899e+002 1.988169914102e+002 1.988167456117e+002 1.988335405667e+002 1.987634745516e+002 1.987866094031e+002 1.986932224071e+002 1.987228048882e+002 1.986075958221e+002 1.986433911553e+002 1.970560949940e+002 1.985484198749e+002 1.985081799622e+002 1.972439957461e+002 1.971695239347e+002 1.978733587742e+002 1.980327339792e+002 1.981815146897e+002 1.979722101839e+002 1.981243644853e+002 1.983153256862e+002 1.982653728064e+002 1.973627005061e+002 1.984395900339e+002 1.983958024675e+002 1.988331526475e+002 1.969764486452e+002 1.987852432755e+002 1.971723580615e+002 1.987216786519e+002 1.973590160920e+002 1.986420124626e+002 1.978051958266e+002 1.979691460536e+002 1.981215975875e+002 1.982624046044e+002 1.985468954713e+002 1.967272854095e+002 1.988531445878e+002 1.988529652167e+002 1.977047567536e+002 1.975348148795e+002 1.968545119559e+002 1.984381077226e+002 1.981249807074e+002 1.982662642165e+002 1.979732528947e+002 1.978056816465e+002 1.969786382790e+002 1.972391536893e+002 1.988328108609e+002 1.974248073221e+002 1.987857756531e+002 1.986952092166e+002 1.985095553924e+002 1.986099823167e+002 1.969866966969e+002 1.988619396450e+002 1.988619390101e+002 1.976612081249e+002 1.966893113964e+002 1.988535248015e+002 1.984516489870e+002 1.984971275665e+002 1.985992312402e+002 1.974435279377e+002 1.986862380550e+002 1.972605720069e+002 1.979552715440e+002 1.981086536948e+002 1.982508475800e+002 1.988366862314e+002 1.969581229764e+002 1.987920079906e+002 1.967986436713e+002 1.977957845845e+002 1.988715798731e+002 1.988713638372e+002 1.988502479181e+002 1.978206638830e+002 1.974137776654e+002 1.977239782918e+002 1.975167129198e+002 1.971261133950e+002 1.968760836997e+002 1.967152702423e+002 1.966982245531e+002 1.968767622293e+002 1.983271273370e+002 1.981922245636e+002 1.980451548731e+002 1.978874187125e+002 1.987586067330e+002 1.970681945537e+002 1.988131904026e+002 1.983812801239e+002 1.985579837183e+002 1.987577797909e+002 1.986523098974e+002 1.988125736650e+002 1.987300936536e+002 1.983293216268e+002 1.981921683100e+002 1.980467540141e+002 1.978891227459e+002 1.970709228247e+002 1.973389729303e+002 1.971500607150e+002 1.971499681555e+002 1.987300870080e+002 1.973370978189e+002 1.986522942265e+002 1.985589740013e+002 1.983812670255e+002 1.988752636365e+002 1.988753156708e+002 1.985475611818e+002 1.984537311522e+002 1.988719751765e+002 1.971844633999e+002 1.988647836500e+002 1.988652723057e+002 1.969613065370e+002 1.988702364693e+002 1.967644877319e+002 1.972224713257e+002 1.975101572022e+002 1.977314406432e+002 1.968931899027e+002 1.967206715820e+002 1.974927082169e+002 1.967847719524e+002 1.967798014594e+002 1.977484807213e+002 1.967113072577e+002 1.975570695186e+002 1.976584973807e+002 1.966961452709e+002 1.972523630552e+002 1.985027764275e+002 1.986034034101e+002 1.986897244169e+002 1.987905618473e+002 1.988360411808e+002 1.984454317578e+002 1.977988089523e+002 1.979615919475e+002 1.981145524496e+002 1.982562734413e+002 1.975841022031e+002 1.967849377934e+002 1.976636678050e+002 1.975772105802e+002 1.988513087696e+002 1.988695788456e+002 1.969660643160e+002 1.974312846706e+002 1.970127737515e+002 1.973622287378e+002 1.988729099573e+002 1.967050179774e+002 1.983454106383e+002 1.982119769075e+002 1.980665104648e+002 1.979101985005e+002 1.984821512880e+002 1.984668819014e+002 1.983653867983e+002 1.985872466755e+002 1.986761859412e+002 1.974677766788e+002 1.987494090382e+002 1.972839080253e+002 1.988063544868e+002 1.970954960653e+002 1.988415387876e+002 1.988061111589e+002 1.987495595591e+002 1.986765435648e+002 1.985876711948e+002 1.970953936536e+002 1.972831448256e+002 1.979110393697e+002 1.980663401152e+002 1.982118198209e+002 1.988414225757e+002 1.969310510314e+002 1.977720006028e+002 1.988444255811e+002 1.988661214819e+002 1.988661238074e+002 1.969448290053e+002 1.968689507394e+002 1.967506193169e+002 1.976492695052e+002 1.988286354772e+002 1.987800176865e+002 1.987030777365e+002 1.986194519917e+002 1.985192080426e+002 1.969992528256e+002 1.972198809721e+002 1.974053761088e+002 1.982807329362e+002 1.979901739328e+002 1.978291512062e+002 1.981386844723e+002 1.984275448280e+002 1.988561005469e+002 1.988737197213e+002 1.988737207888e+002 1.988012856937e+002 1.986716802333e+002 1.985818930393e+002 1.972942416109e+002 1.979266762392e+002 1.980819363834e+002 1.982262233129e+002 1.976224152919e+002 1.975952222880e+002 1.984775425932e+002 1.984716395953e+002 1.977622008726e+002 1.988756677087e+002 1.990121994886e+002 1.974496932327e+002 1.977882744226e+002 1.985283696291e+002 1.986261670471e+002 1.987086363124e+002 1.988253911503e+002 1.987754690056e+002 1.973918088849e+002 1.972059396586e+002 1.970143927669e+002 1.981520184470e+002 1.982906675511e+002 1.978413188261e+002 1.980018242724e+002 1.988253875447e+002 1.987754506787e+002 1.980018197276e+002 1.981523733194e+002 1.987090295476e+002 1.982908373894e+002 1.986266444151e+002 1.985290681967e+002 1.972050686989e+002 1.984172715954e+002 1.984166369269e+002 1.967664946726e+002 1.975171861696e+002 1.967569841707e+002 1.978078929974e+002 1.976282709514e+002 1.988628292850e+002 1.988625269140e+002 1.976959544105e+002 1.977099014368e+002 1.976398105616e+002 1.984893799466e+002 1.983384146044e+002 1.983719608887e+002 1.984594789851e+002 1.982412099161e+002 1.980981896339e+002 1.979440630862e+002 1.985665203338e+002 1.971358965906e+002 1.973232074365e+002 1.987961989457e+002 1.987352879776e+002 1.986586946038e+002 1.987957149615e+002 1.971356607276e+002 1.987352908293e+002 1.973231616709e+002 1.979440648077e+002 1.980981914186e+002 1.982384882483e+002 1.986586965457e+002 1.985665213014e+002 1.977426476600e+002 1.967032418325e+002 1.988739311229e+002 1.977005929740e+002 1.983559587609e+002 1.983546416308e+002 1.971098255450e+002 1.971094754681e+002 1.987446167152e+002 1.987445371346e+002 1.988709764253e+002 1.967094544399e+002 1.969304545559e+002 1.969329173922e+002 1.967349206107e+002 1.988757007603e+002 1.991002477888e+002 1.988757217226e+002 1.990368691605e+002 1.966918037901e+002 1.988481577697e+002 1.988482416776e+002 1.985792668496e+002 1.986694689215e+002 1.972992180823e+002 1.982219885079e+002 1.979217715068e+002 1.980773455403e+002 1.988025788703e+002 1.968334572422e+002 1.968393602673e+002 1.967251761107e+002 1.977361962917e+002 1.975048693016e+002 1.967348591760e+002 1.968893660288e+002 1.970212772504e+002 1.975515780248e+002 1.968614693499e+002 1.988576570835e+002 1.988576575948e+002 1.975326607177e+002 1.977179011771e+002 1.988529667446e+002 1.974624929776e+002 1.977223144066e+002 1.976937151024e+002 1.987860761824e+002 1.969767754370e+002 1.988331003791e+002 1.979554991130e+002 1.981084823560e+002 1.982510426385e+002 1.984526364979e+002 1.972423777633e+002 1.986938540713e+002 1.974270844191e+002 1.986083554292e+002 1.984959433830e+002 1.988439403967e+002 1.967806967080e+002 1.976615797274e+002 1.976018550372e+002 1.974811740854e+002 1.966890212150e+002 1.988757545121e+002 1.991653516796e+002 1.988757557882e+002 1.992352169276e+002 1.970363537679e+002 1.969168542085e+002 1.976181102219e+002 1.975523719185e+002 1.988711536751e+002 1.973815008634e+002 1.978481508562e+002 1.968365662717e+002 1.977395197944e+002 1.967191686007e+002 1.985479587258e+002 1.986429186282e+002 1.987224209899e+002 1.973570911359e+002 1.971704048467e+002 1.987308326559e+002 1.988121322861e+002 1.986532197673e+002 1.987572091399e+002 1.985600705290e+002 1.971480365101e+002 1.973351146679e+002 1.970728002239e+002 1.978906012464e+002 1.981952329737e+002 1.980480956110e+002 1.983301640855e+002 1.988165854348e+002 1.987632622052e+002 1.970537199573e+002 1.983945232273e+002 1.978714617380e+002 1.980301712665e+002 1.981783355649e+002 1.983147388075e+002 1.983801858943e+002 1.984166395514e+002 1.982906578743e+002 1.980018180623e+002 1.981520175268e+002 1.978413155510e+002 1.988253938661e+002 1.987754519456e+002 1.987091843838e+002 1.985289313231e+002 1.986268310648e+002 1.970149650332e+002 1.972046315727e+002 1.973908193002e+002 1.975024229970e+002 1.968804079932e+002 1.988708389599e+002 1.970306953634e+002 1.983780987458e+002 1.983320639771e+002 1.981970019966e+002 1.980503193160e+002 1.978929243018e+002 1.987557996865e+002 1.988111389380e+002 1.970766918813e+002 1.987318556985e+002 1.986542330372e+002 1.985611315484e+002 1.971451563621e+002 1.973331328981e+002 1.976134821454e+002 1.988581191561e+002 1.975932809359e+002 1.988607016991e+002 1.984143693368e+002 1.984181088748e+002 1.982947401271e+002 1.981564013425e+002 1.980066121832e+002 1.978464075740e+002 1.988246008250e+002 1.987743425001e+002 1.987070648343e+002 1.986242674827e+002 1.985309192826e+002 1.972100032742e+002 1.985276354340e+002 1.980047730073e+002 1.981492708563e+002 1.982931768169e+002 1.986258066582e+002 1.987083376579e+002 1.973925363806e+002 1.987755537872e+002 1.972066945580e+002 1.988254644508e+002 1.970140826023e+002 1.967403534339e+002 1.987684360570e+002 1.970374854376e+002 1.988203497513e+002 1.980190939888e+002 1.983053485833e+002 1.981691503390e+002 1.978596749216e+002 1.971844729150e+002 1.987170446633e+002 1.973708114764e+002 1.986363709341e+002 1.985399982104e+002 1.984038963126e+002 1.968688615785e+002 1.988757286149e+002 1.991119855488e+002 1.988643559040e+002 1.988692274315e+002 1.988692251109e+002 1.975876263440e+002 1.976560092815e+002 1.968270498727e+002 1.970188638218e+002 1.988504703920e+002 1.968847902294e+002 1.988576369304e+002 1.988575361735e+002 1.969078866235e+002 1.984953747294e+002 1.985979442153e+002 1.974466196924e+002 1.986851613767e+002 1.972631219463e+002 1.982524358067e+002 1.981086748953e+002 1.979571239443e+002 1.984523686923e+002 1.988374366898e+002 1.969514068956e+002 1.987927321964e+002 1.974802222068e+002 1.977600939212e+002 1.975707577384e+002 1.966955488467e+002 1.967625548257e+002 1.988747729735e+002 1.981454082854e+002 1.988747725967e+002 1.980957068008e+002 1.978497449676e+002 1.973822363621e+002 1.977879838973e+002 1.966987015329e+002 1.988394399933e+002 1.976896494870e+002 1.975379524070e+002 1.976821906025e+002 1.975666032049e+002 1.968179645247e+002 1.966858747553e+002 1.967464716257e+002 1.974208072604e+002 1.966852158594e+002 1.967778476201e+002 1.975822630029e+002 1.967902833354e+002 1.967031530254e+002 1.976362840646e+002 1.975234072860e+002 1.976874162161e+002 1.975487059305e+002 1.988673045371e+002 1.971613245046e+002 1.969696192070e+002 1.984296363664e+002 1.984585660046e+002 1.988392943165e+002 1.987955228008e+002 1.988304111598e+002 1.987821697080e+002 1.986854395011e+002 1.985982740818e+002 1.972625388993e+002 1.985173305019e+002 1.984902673359e+002 1.978188938692e+002 1.977847516078e+002 1.979809643817e+002 1.979456882309e+002 1.980997078415e+002 1.981326375269e+002 1.982727947449e+002 1.982425506308e+002 1.974427418101e+002 1.988732218363e+002 1.988731972100e+002 1.988746651804e+002 1.988746658479e+002 1.978087117348e+002 1.988742693640e+002 1.983186511168e+002 1.981826166779e+002 1.980347866553e+002 1.978763732351e+002 1.983908318479e+002 1.984417879008e+002 1.985061638117e+002 1.986070594108e+002 1.974298823269e+002 1.986927756276e+002 1.972449818379e+002 1.987626462435e+002 1.970555939155e+002 1.988161404858e+002 1.988161279812e+002 1.987626281235e+002 1.988339173755e+002 1.986927066453e+002 1.986069769722e+0