<?xml version="1.0"?>
<VTKFile type="UnstructuredGrid" version="0.1" byte_order="LittleEndian">
  <UnstructuredGrid>
    <Piece NumberOfPoints="2604" NumberOfCells="4910">
      <Points>
        <DataArray type="Float64" NumberOfComponents="3" format="ascii">
          0.000000000000e+000 0.000000000000e+000 0.000000000000e+000
          2.000000000000e+002 0.000000000000e+000 0.000000000000e+000
          2.000000000000e+002 2.000000000000e+001 0.000000000000e+000
          0.000000000000e+000 2.000000000000e+001 0.000000000000e+000
          1.492537313427e+000 0.000000000000e+000 0.000000000000e+000
          2.985074626854e+000 0.000000000000e+000 0.000000000000e+000
          4.477611940281e+000 0.000000000000e+000 0.000000000000e+000
          5.970149253708e+000 0.000000000000e+000 0.000000000000e+000
          7.462686567135e+000 0.000000000000e+000 0.000000000000e+000
          8.955223880561e+000 0.000000000000e+000 0.000000000000e+000
          1.044776119399e+001 0.000000000000e+000 0.000000000000e+000
          1.194029850741e+001 0.000000000000e+000 0.000000000000e+000
          1.343283582084e+001 0.000000000000e+000 0.000000000000e+000
          1.492537313427e+001 0.000000000000e+000 0.000000000000e+000
          1.641791044770e+001 0.000000000000e+000 0.000000000000e+000
          1.791044776112e+001 0.000000000000e+000 0.000000000000e+000
          1.940298507455e+001 0.000000000000e+000 0.000000000000e+000
          2.089552238798e+001 0.000000000000e+000 0.000000000000e+000
          2.238805970141e+001 0.000000000000e+000 0.000000000000e+000
          2.388059701484e+001 0.000000000000e+000 0.000000000000e+000
          2.537313432826e+001 0.000000000000e+000 0.000000000000e+000
          2.686567164169e+001 0.000000000000e+000 0.000000000000e+000
          2.835820895511e+001 0.000000000000e+000 0.000000000000e+000
          2.985074626854e+001 0.000000000000e+000 0.000000000000e+000
          3.134328358196e+001 0.000000000000e+000 0.000000000000e+000
          3.283582089539e+001 0.000000000000e+000 0.000000000000e+000
          3.432835820881e+001 0.000000000000e+000 0.000000000000e+000
          3.582089552224e+001 0.000000000000e+000 0.000000000000e+000
          3.731343283566e+001 0.000000000000e+000 0.000000000000e+000
          3.880597014909e+001 0.000000000000e+000 0.000000000000e+000
          4.029850746251e+001 0.000000000000e+000 0.000000000000e+000
          4.179104477594e+001 0.000000000000e+000 0.000000000000e+000
          4.328358208936e+001 0.000000000000e+000 0.000000000000e+000
          4.477611940279e+001 0.000000000000e+000 0.000000000000e+000
          4.626865671621e+001 0.000000000000e+000 0.000000000000e+000
          4.776119402964e+001 0.000000000000e+000 0.000000000000e+000
          4.925373134306e+001 0.000000000000e+000 0.000000000000e+000
          5.074626865649e+001 0.000000000000e+000 0.000000000000e+000
          5.223880596991e+001 0.000000000000e+000 0.000000000000e+000
          5.373134328334e+001 0.000000000000e+000 0.000000000000e+000
          5.522388059676e+001 0.000000000000e+000 0.000000000000e+000
          5.671641791019e+001 0.000000000000e+000 0.000000000000e+000
          5.820895522361e+001 0.000000000000e+000 0.000000000000e+000
          5.970149253704e+001 0.000000000000e+000 0.000000000000e+000
          6.119402985046e+001 0.000000000000e+000 0.000000000000e+000
          6.268656716389e+001 0.000000000000e+000 0.000000000000e+000
          6.417910447732e+001 0.000000000000e+000 0.000000000000e+000
          6.567164179075e+001 0.000000000000e+000 0.000000000000e+000
          6.716417910418e+001 0.000000000000e+000 0.000000000000e+000
          6.865671641761e+001 0.000000000000e+000 0.000000000000e+000
          7.014925373104e+001 0.000000000000e+000 0.000000000000e+000
          7.164179104447e+001 0.000000000000e+000 0.000000000000e+000
          7.313432835790e+001 0.000000000000e+000 0.000000000000e+000
          7.462686567133e+001 0.000000000000e+000 0.000000000000e+000
          7.611940298476e+001 0.000000000000e+000 0.000000000000e+000
          7.761194029819e+001 0.000000000000e+000 0.000000000000e+000
          7.910447761162e+001 0.000000000000e+000 0.000000000000e+000
          8.059701492505e+001 0.000000000000e+000 0.000000000000e+000
          8.208955223848e+001 0.000000000000e+000 0.000000000000e+000
          8.358208955191e+001 0.000000000000e+000 0.000000000000e+000
          8.507462686534e+001 0.000000000000e+000 0.000000000000e+000
          8.656716417877e+001 0.000000000000e+000 0.000000000000e+000
          8.805970149220e+001 0.000000000000e+000 0.000000000000e+000
          8.955223880563e+001 0.000000000000e+000 0.000000000000e+000
          9.104477611907e+001 0.000000000000e+000 0.000000000000e+000
          9.253731343250e+001 0.000000000000e+000 0.000000000000e+000
          9.402985074593e+001 0.000000000000e+000 0.000000000000e+000
          9.552238805936e+001 0.000000000000e+000 0.000000000000e+000
          9.701492537279e+001 0.000000000000e+000 0.000000000000e+000
          9.850746268622e+001 0.000000000000e+000 0.000000000000e+000
          9.999999999965e+001 0.000000000000e+000 0.000000000000e+000
          1.014925373131e+002 0.000000000000e+000 0.000000000000e+000
          1.029850746265e+002 0.000000000000e+000 0.000000000000e+000
          1.044776119399e+002 0.000000000000e+000 0.000000000000e+000
          1.059701492534e+002 0.000000000000e+000 0.000000000000e+000
          1.074626865668e+002 0.000000000000e+000 0.000000000000e+000
          1.089552238802e+002 0.000000000000e+000 0.000000000000e+000
          1.104477611937e+002 0.000000000000e+000 0.000000000000e+000
          1.119402985071e+002 0.000000000000e+000 0.000000000000e+000
          1.134328358205e+002 0.000000000000e+000 0.000000000000e+000
          1.149253731340e+002 0.000000000000e+000 0.000000000000e+000
          1.164179104474e+002 0.000000000000e+000 0.000000000000e+000
          1.179104477608e+002 0.000000000000e+000 0.000000000000e+000
          1.194029850742e+002 0.000000000000e+000 0.000000000000e+000
          1.208955223877e+002 0.000000000000e+000 0.000000000000e+000
          1.223880597011e+002 0.000000000000e+000 0.000000000000e+000
          1.238805970145e+002 0.000000000000e+000 0.000000000000e+000
          1.253731343280e+002 0.000000000000e+000 0.000000000000e+000
          1.268656716414e+002 0.000000000000e+000 0.000000000000e+000
          1.283582089548e+002 0.000000000000e+000 0.000000000000e+000
          1.298507462683e+002 0.000000000000e+000 0.000000000000e+000
          1.313432835817e+002 0.000000000000e+000 0.000000000000e+000
          1.328358208952e+002 0.000000000000e+000 0.000000000000e+000
          1.343283582086e+002 0.000000000000e+000 0.000000000000e+000
          1.358208955220e+002 0.000000000000e+000 0.000000000000e+000
          1.373134328355e+002 0.000000000000e+000 0.000000000000e+000
          1.388059701489e+002 0.000000000000e+000 0.000000000000e+000
          1.402985074624e+002 0.000000000000e+000 0.000000000000e+000
          1.417910447758e+002 0.000000000000e+000 0.000000000000e+000
          1.432835820892e+002 0.000000000000e+000 0.000000000000e+000
          1.447761194027e+002 0.000000000000e+000 0.000000000000e+000
          1.462686567161e+002 0.000000000000e+000 0.000000000000e+000
          1.477611940296e+002 0.000000000000e+000 0.000000000000e+000
          1.492537313430e+002 0.000000000000e+000 0.000000000000e+000
          1.507462686564e+002 0.000000000000e+000 0.000000000000e+000
          1.522388059699e+002 0.000000000000e+000 0.000000000000e+000
          1.537313432833e+002 0.000000000000e+000 0.000000000000e+000
          1.552238805968e+002 0.000000000000e+000 0.000000000000e+000
          1.567164179102e+002 0.000000000000e+000 0.000000000000e+000
          1.582089552237e+002 0.000000000000e+000 0.000000000000e+000
          1.597014925371e+002 0.000000000000e+000 0.000000000000e+000
          1.611940298505e+002 0.000000000000e+000 0.000000000000e+000
          1.626865671640e+002 0.000000000000e+000 0.000000000000e+000
          1.641791044774e+002 0.000000000000e+000 0.000000000000e+000
          1.656716417909e+002 0.000000000000e+000 0.000000000000e+000
          1.671641791043e+002 0.000000000000e+000 0.000000000000e+000
          1.686567164177e+002 0.000000000000e+000 0.000000000000e+000
          1.701492537312e+002 0.000000000000e+000 0.000000000000e+000
          1.716417910446e+002 0.000000000000e+000 0.000000000000e+000
          1.731343283581e+002 0.000000000000e+000 0.000000000000e+000
          1.746268656715e+002 0.000000000000e+000 0.000000000000e+000
          1.761194029849e+002 0.000000000000e+000 0.000000000000e+000
          1.776119402984e+002 0.000000000000e+000 0.000000000000e+000
          1.791044776118e+002 0.000000000000e+000 0.000000000000e+000
          1.805970149253e+002 0.000000000000e+000 0.000000000000e+000
          1.820895522387e+002 0.000000000000e+000 0.000000000000e+000
          1.835820895521e+002 0.000000000000e+000 0.000000000000e+000
          1.850746268656e+002 0.000000000000e+000 0.000000000000e+000
          1.865671641790e+002 0.000000000000e+000 0.000000000000e+000
          1.880597014925e+002 0.000000000000e+000 0.000000000000e+000
          1.895522388059e+002 0.000000000000e+000 0.000000000000e+000
          1.910447761194e+002 0.000000000000e+000 0.000000000000e+000
          1.925373134328e+002 0.000000000000e+000 0.000000000000e+000
          1.940298507462e+002 0.000000000000e+000 0.000000000000e+000
          1.955223880597e+002 0.000000000000e+000 0.000000000000e+000
          1.970149253731e+002 0.000000000000e+000 0.000000000000e+000
          1.985074626866e+002 0.000000000000e+000 0.000000000000e+000
          2.000000000000e+002 1.428571428570e+000 0.000000000000e+000
          2.000000000000e+002 2.857142857140e+000 0.000000000000e+000
[...]
      <PointData Scalars="MEAN_PRESSURE">
        <DataArray type="Float64" Name="MEAN_PRESSURE" format="ascii">
          2.000000000000e+002 1.992664634920e+002 1.992664619438e+002 2.000000000000e+002 1.994689613424e+002 1.984193651665e+002 1.977223328024e+002 1.972480411426e+002 1.969453505572e+002 1.967696539693e+002 1.966759724331e+002 1.966392922046e+002 1.966371105953e+002 1.966552635480e+002 1.966839816356e+002 1.967178767634e+002 1.967536649283e+002 1.967897122283e+002 1.968253333592e+002 1.968603220761e+002 1.968947261518e+002 1.969286207929e+002 1.969621697050e+002 1.969954770582e+002 1.970286170601e+002 1.970616358455e+002 1.970945661902e+002 1.971274222165e+002 1.971602066815e+002 1.971929208344e+002 1.972255606142e+002 1.972581223192e+002 1.972905966526e+002 1.973229786259e+002 1.973552611213e+002 1.973874361478e+002 1.974194995404e+002 1.974514415218e+002 1.974832580463e+002 1.975149442820e+002 1.975464899455e+002 1.975778867507e+002 1.976091354712e+002 1.976402258243e+002 1.976711544495e+002 1.977019141143e+002 1.977325026020e+002 1.977629041307e+002 1.977931274610e+002 1.978231554547e+002 1.978529852660e+002 1.978826139174e+002 1.979120402230e+002 1.979412425494e+002 1.979702325317e+002 1.979990001077e+002 1.980275428120e+002 1.980558472442e+002 1.980839121626e+002 1.981117459154e+002 1.981393193336e+002 1.981666418362e+002 1.981937075756e+002 1.982205169959e+002 1.982470582988e+002 1.982733293420e+002 1.982993267885e+002 1.983250435178e+002 1.983504805643e+002 1.983756273174e+002 1.984004894546e+002 1.984250511334e+002 1.984493183697e+002 1.984732822285e+002 1.984969390451e+002 1.985202899643e+002 1.985433245566e+002 1.985660491087e+002 1.985884516515e+002 1.986105331873e+002 1.986322844564e+002 1.986537127288e+002 1.986748059779e+002 1.986955679556e+002 1.987159904578e+002 1.987360723623e+002 1.987558133306e+002 1.987752086060e+002 1.987942558005e+002 1.988129531965e+002 1.988312983497e+002 1.988492895923e+002 1.988669248520e+002 1.988841992950e+002 1.989011091614e+002 1.989176605014e+002 1.989338426108e+002 1.989496582247e+002 1.989651060054e+002 1.989801854303e+002 1.989948909762e+002 1.990092191521e+002 1.990231765456e+002 1.990367524686e+002 1.990499502548e+002 1.990627690613e+002 1.990752088528e+002 1.990872643995e+002 1.990989325518e+002 1.991102204798e+002 1.991211175577e+002 1.991316273776e+002 1.991417503554e+002 1.991514876882e+002 1.991608318686e+002 1.991697810983e+002 1.991783436366e+002 1.991865086467e+002 1.991942800650e+002 1.992016582014e+002 1.992086449341e+002 1.992152356492e+002 1.992214265428e+002 1.992272203569e+002 1.992326160316e+002 1.992376101060e+002 1.992422104051e+002 1.992464162570e+002 1.992502165841e+002 1.992536258555e+002 1.992566407556e+002 1.992592351914e+002 1.992614359081e+002 1.992632381405e+002 1.992646623883e+002 1.992656246942e+002 1.992662440743e+002 1.992664420572e+002 1.992664220977e+002 1.992664654445e+002 1.992664567469e+002 1.992664524846e+002 1.992664446627e+002 1.992664395299e+002 1.992664430888e+002 1.992664434994e+002 1.992664337104e+002 1.992664607633e+002 1.992664196397e+002 1.992664403481e+002 1.992662426797e+002 1.992656235866e+002 1.992646614298e+002 1.992632371947e+002 1.992614351782e+002 1.992592357318e+002 1.992566425261e+002 1.992536278772e+002 1.992502184770e+002 1.992464180188e+002 1.992422108325e+002 1.992376108499e+002 1.992326157976e+002 1.992272190751e+002 1.992214255923e+002 1.992152337420e+002 1.992086425544e+002 1.992016633121e+002 1.991942842596e+002 1.991865097122e+002 1.991783433802e+002 1.991697823604e+002 1.991608285416e+002 1.991514871344e+002 1.991417532100e+002 1.991316312276e+002 1.991211175343e+002 1.991102192860e+002 1.990989303108e+002 1.990872630860e+002 1.990752070709e+002 1.990627697533e+002 1.990499515617e+002 1.990367498669e+002 1.990231748598e+002 1.990092174937e+002 1.989948905212e+002 1.989801843972e+002 1.989651069936e+002 1.989496593269e+002 1.989338397840e+002 1.989176588838e+002 1.989011080532e+002 1.988841994634e+002 1.988669245974e+002 1.988492874224e+002 1.988312993115e+002 1.988129538733e+002 1.987942561264e+002 1.987752086112e+002 1.987558143683e+002 1.987360759588e+002 1.987159933861e+002 1.986955677615e+002 1.986748094080e+002 1.986537129232e+002 1.986322852045e+002 1.986105300961e+002 1.985884528659e+002 1.985660488182e+002 1.985433280398e+002 1.985202913734e+002 1.984969401377e+002 1.984732802554e+002 1.984493163132e+002 1.984250523207e+002 1.984004883069e+002 1.983756296161e+002 1.983504793535e+002 1.983250434275e+002 1.982993245460e+002 1.982733280124e+002 1.982470586118e+002 1.982205174045e+002 1.981937102208e+002 1.981666408250e+002 1.981393154835e+002 1.981117375533e+002 1.980839125869e+002 1.980558467172e+002 1.980275414097e+002 1.979990025495e+002 1.979702342752e+002 1.979412434520e+002 1.979120338042e+002 1.978826121093e+002 1.978529832483e+002 1.978231480944e+002 1.977931218282e+002 1.977629032552e+002 1.977324965599e+002 1.977019118833e+002 1.976711478661e+002 1.976402154577e+002 1.976091218694e+002 1.975778689061e+002 1.975464639072e+002 1.975149135492e+002 1.974832222048e+002 1.974513951248e+002 1.974194409829e+002 1.973873623547e+002 1.973551666045e+002 1.973228594768e+002 1.972904466988e+002 1.972579321844e+002 1.972253205358e+002 1.971926172363e+002 1.971598218239e+002 1.971269350860e+002 1.970939519265e+002 1.970608604897e+002 1.970276353607e+002 1.969942358139e+002 1.969605969907e+002 1.969266226146e+002 1.968921861506e+002 1.968571246824e+002 1.968213138388e+002 1.967846427530e+002 1.967473147555e+002 1.967099567157e+002 1.966741605204e+002 1.966429388680e+002 1.966224504796e+002 1.966221241883e+002 1.966568335814e+002 1.967453709248e+002 1.969231397989e+002 1.972281457327e+002 1.977004753519e+002 1.984050260925e+002 1.994509972898e+002 2.000000000000e+002 2.000000000000e+002 2.000000000000e+002 2.000000000000e+002 2.000000000000e+002 2.000000000000e+002 2.000000000000e+002 2.000000000000e+002 2.000000000000e+002 2.000000000000e+002 2.000000000000e+002 2.000000000000e+002 2.000000000000e+002 1.992574315348e+002 1.966893733250e+002 1.992301381740e+002 1.991826298601e+002 1.991150284611e+002 1.990291551558e+002 1.989247765644e+002 1.969445246959e+002 1.988036408513e+002 1.971784425910e+002 1.974054540732e+002 1.976285628205e+002 1.979532915983e+002 1.981530043181e+002 1.983377899143e+002 1.985086460813e+002 1.986642923863e+002 1.967353235072e+002 1.977931259273e+002 1.987360678602e+002 1.987351530588e+002 1.985884522203e+002 1.984250515708e+002 1.982470592216e+002 1.980558483805e+002 1.992096723445e+002 1.991529296111e+002 1.990766353292e+002 1.980558438048e+002 1.982423172056e+002 1.984270209199e+002 1.985844546338e+002 1.989819247384e+002 1.988669178882e+002 1.970597984715e+002 1.972867411777e+002 1.975184964397e+002 1.988677341886e+002 1.989803281660e+002 1.990753250141e+002 1.991514775472e+002 1.992086349556e+002 1.975145959096e+002 1.972901497797e+002 1.970610329273e+002 1.992459960944e+002 1.992457436318e+002 1.977281347897e+002 1.978609307022e+002 1.966460048667e+002 1.968269536698e+002 1.992632974730e+002 1.972401807091e+002 1.992633473897e+002 1.972390874318e+002 1.966375675972e+002 1.968551405459e+002 1.976949181547e+002 1.978868240575e+002 1.992299728006e+002 1.986642952363e+002 1.991824685635e+002 1.985086536944e+002 1.983377974662e+002 1.981530102156e+002 1.979619190824e+002 1.988034603509e+002 1.991159023412e+002 1.990312125525e+002 1.989272326153e+002 1.971759165075e+002 1.974006140133e+002 1.988038218983e+002 1.989257893695e+002 1.990300047000e+002 1.991157104618e+002 1.981529615022e+002 1.983377507131e+002 1.985086080490e+002 1.991824686196e+002 1.986646755614e+002 1.992299661771e+002 1.976246919684e+002 1.974034238075e+002 1.971762781000e+002 1.969439036193e+002 1.992562959358e+002 1.992564835988e+002 1.966530671142e+002 1.969626341092e+002 1.979761176237e+002 1.976008324088e+002 1.992647988996e+002 1.977780944437e+002 1.967390396500e+002 1.966995209248e+002 1.967329864793e+002 1.977758238343e+002 1.977123585828e+002 1.978735826079e+002 1.966369693322e+002 1.968323545329e+002 1.977938055709e+002 1.992490605977e+002 1.990860976155e+002 1.991421001387e+002 1.989934663429e+002 1.992019059397e+002 1.988825082932e+002 1.986068279045e+002 1.982689194207e+002 1.980792011831e+002 1.984469477372e+002 1.970930367928e+002 1.974863321178e+002 1.972612011906e+002 1.987179450554e+002 1.977931234490e+002 1.992654381889e+002 1.982685994682e+002 1.992654381614e+002 1.982405147306e+002 1.986183858632e+002 1.984579641708e+002 1.982827055712e+002 1.980939455941e+002 1.988428450139e+002 1.987078576627e+002 1.987628201810e+002 1.989595800014e+002 1.975577773720e+002 1.990581900123e+002 1.973345010144e+002 1.991381395866e+002 1.971058683504e+002 1.991990362227e+002 1.991987552997e+002 1.992179478419e+002 1.991377489328e+002 1.991642670900e+002 1.990570003066e+002 1.990910427024e+002 1.989581435933e+002 1.989995262978e+002 1.971108149793e+002 1.988895555007e+002 1.988427944150e+002 1.973376290888e+002 1.972476369207e+002 1.980940902249e+002 1.982837656062e+002 1.984598884449e+002 1.982118498049e+002 1.983923509517e+002 1.986174116966e+002 1.985587099044e+002 1.974809687570e+002 1.987628716642e+002 1.987117109591e+002 1.992175048137e+002 1.970157147610e+002 1.991627022682e+002 1.972510788390e+002 1.990897479051e+002 1.974765260336e+002 1.989979341060e+002 1.980126828356e+002 1.982082059485e+002 1.983890780706e+002 1.985552186839e+002 1.988877859652e+002 1.967189947820e+002 1.992403251966e+002 1.992401205685e+002 1.978924511870e+002 1.976883607909e+002 1.968734644249e+002 1.987611416206e+002 1.983930797355e+002 1.985597582737e+002 1.982130897557e+002 1.980132631724e+002 1.970182667297e+002 1.973317825387e+002 1.992171143825e+002 1.975558747599e+002 1.991633121111e+002 1.990592883319e+002 1.988443944533e+002 1.989609049603e+002 1.970278078167e+002 1.992503555657e+002 1.992503548382e+002 1.978402257091e+002 1.966226711455e+002 1.992407589325e+002 1.987769430633e+002 1.988299344363e+002 1.989484617193e+002 1.975784392573e+002 1.990489545155e+002 1.973576621148e+002 1.981916976769e+002 1.983737591154e+002 1.985416177940e+002 1.992215404370e+002 1.969940206014e+002 1.991704500796e+002 1.968084077520e+002 1.980014300933e+002 1.992613433686e+002 1.992610972012e+002 1.992370205238e+002 1.980311697894e+002 1.975425767229e+002 1.979154841866e+002 1.976665779992e+002 1.969145758721e+002 1.968983223417e+002 1.966214324566e+002 1.966666540009e+002 1.968990274259e+002 1.986312619910e+002 1.984725285181e+002 1.982985055918e+002 1.981108608420e+002 1.991321645859e+002 1.971253943157e+002 1.991946900456e+002 1.986947208414e+002 1.989006559315e+002 1.991312159254e+002 1.990098253737e+002 1.991939848367e+002 1.990994219176e+002 1.986338363385e+002 1.984724623735e+002 1.983004026726e+002 1.981128927405e+002 1.971286555355e+002 1.974523351588e+002 1.972241264218e+002 1.972240252469e+002 1.990994141487e+002 1.974500730919e+002 1.990098068101e+002 1.989018040388e+002 1.986947047344e+002 1.992655402892e+002 1.992655995643e+002 1.983596597773e+002 1.982549905547e+002 1.992617937741e+002 1.969692549080e+002 1.992535978342e+002 1.992541548427e+002 1.967767851055e+002 1.992598125710e+002 1.966465458442e+002 1.970077664189e+002 1.976586874906e+002 1.979244247590e+002 1.969180649643e+002 1.966350326415e+002 1.976376809112e+002 1.967921972484e+002 1.967860911605e+002 1.979448303181e+002 1.966941848037e+002 1.977151294523e+002 1.978369733431e+002 1.966705881547e+002 1.973477405700e+002 1.988365089401e+002 1.989532917302e+002 1.990529712379e+002 1.991687941574e+002 1.992208038427e+002 1.987696901329e+002 1.980050468005e+002 1.981992187313e+002 1.983807411258e+002 1.985480039651e+002 1.977476289321e+002 1.967922999306e+002 1.978431774136e+002 1.977393464191e+002 1.992382308877e+002 1.992590631650e+002 1.970033640665e+002 1.975636821246e+002 1.968234265523e+002 1.971306951767e+002 1.992628588446e+002 1.966847175644e+002 1.986527039414e+002 1.984958251507e+002 1.983238332683e+002 1.981380182538e+002 1.988124972016e+002 1.987947053857e+002 1.986761114512e+002 1.989345818579e+002 1.990373688817e+002 1.976076555994e+002 1.991216082440e+002 1.973858521721e+002 1.991868706953e+002 1.971582920656e+002 1.992270808870e+002 1.991865923690e+002 1.991217811031e+002 1.990377811199e+002 1.989350735117e+002 1.971581318371e+002 1.973849233138e+002 1.981390205763e+002 1.983236313972e+002 1.984956400409e+002 1.992269482090e+002 1.969622368329e+002 1.979729810953e+002 1.992303761601e+002 1.992551227766e+002 1.992551254316e+002 1.969783000152e+002 1.968900561041e+002 1.966334494280e+002 1.978258991088e+002 1.992123445936e+002 1.991567151984e+002 1.990683478763e+002 1.989718593774e+002 1.988556196362e+002 1.970427896100e+002 1.973084970016e+002 1.975324475170e+002 1.985767741838e+002 1.982332104782e+002 1.980413106025e+002 1.984092883026e+002 1.987488092703e+002 1.992436969845e+002 1.992637814196e+002 1.992637826345e+002 1.991810707927e+002 1.990321739424e+002 1.989283791603e+002 1.973983278880e+002 1.981576514225e+002 1.983421171580e+002 1.985126172664e+002 1.973848908128e+002 1.977609929080e+002 1.988071289423e+002 1.988002507176e+002 1.979612542354e+002 1.992660005892e+002 1.988743515656e+002 1.975858676527e+002 1.979924494815e+002 1.988662682208e+002 1.989796237568e+002 1.990747453019e+002 1.992086375171e+002 1.991515020725e+002 1.975160867275e+002 1.972916561166e+002 1.970608831441e+002 1.984250501117e+002 1.985884512072e+002 1.980558440491e+002 1.982470566262e+002 1.992086333717e+002 1.991514810934e+002 1.982470507741e+002 1.984254689450e+002 1.990751977559e+002 1.985886501563e+002 1.989801755622e+002 1.988670798841e+002 1.972905894878e+002 1.987368085820e+002 1.987360669347e+002 1.967700537330e+002 1.976671472012e+002 1.967575516885e+002 1.980159060380e+002 1.978006909850e+002 1.992513698312e+002 1.992510251006e+002 1.978818991169e+002 1.978986167000e+002 1.978145458439e+002 1.988209156028e+002 1.986445016053e+002 1.986838106500e+002 1.987860750184e+002 1.985302708019e+002 1.983613700569e+002 1.981783563229e+002 1.989105578087e+002 1.972070119697e+002 1.974333020142e+002 1.991752483419e+002 1.991053906533e+002 1.990171941479e+002 1.991746943700e+002 1.972067534589e+002 1.991053939770e+002 1.974332517259e+002 1.981783585721e+002 1.983613723452e+002 1.985270653644e+002 1.990171964394e+002 1.989105589758e+002 1.975099911274e+002 1.966200081745e+002 1.992640222585e+002 1.974657919784e+002 1.986650667806e+002 1.986635233441e+002 1.971755490047e+002 1.971751398940e+002 1.991161059263e+002 1.991160145781e+002 1.992606557549e+002 1.966929571628e+002 1.967615947452e+002 1.969643546257e+002 1.967299215161e+002 1.992660382392e+002 1.989705663425e+002 1.992660621195e+002 1.988976899298e+002 1.966493754152e+002 1.992346355313e+002 1.992347312753e+002 1.989253355913e+002 1.990296238175e+002 1.974043399960e+002 1.985076269848e+002 1.981518086553e+002 1.983366768560e+002 1.991825506150e+002 1.968491000676e+002 1.968558477607e+002 1.966294360234e+002 1.979301200082e+002 1.976523225952e+002 1.966371397069e+002 1.969137169574e+002 1.970690460083e+002 1.977085249746e+002 1.968814721600e+002 1.992454722256e+002 1.992454728132e+002 1.976857690480e+002 1.979082032390e+002 1.992401223468e+002 1.976012898811e+002 1.979134906241e+002 1.978792145298e+002 1.991636563095e+002 1.970160980470e+002 1.992174450718e+002 1.981919683683e+002 1.983735563636e+002 1.985418472777e+002 1.987780948819e+002 1.973356822367e+002 1.990577275850e+002 1.975586202589e+002 1.989590223014e+002 1.988285563158e+002 1.992298223239e+002 1.967870983677e+002 1.978406717502e+002 1.977689625953e+002 1.976237918091e+002 1.966492777750e+002 1.992660994714e+002 1.990445831343e+002 1.992661009234e+002 1.991255474212e+002 1.968384817229e+002 1.969456177670e+002 1.977884888447e+002 1.977094798821e+002 1.992608577238e+002 1.975036507187e+002 1.980640020968e+002 1.968526679672e+002 1.979340997006e+002 1.967053992949e+002 1.988890199568e+002 1.989989805336e+002 1.990906013514e+002 1.974742025644e+002 1.972487168900e+002 1.991002708946e+002 1.991934798732e+002 1.990108751470e+002 1.991305608475e+002 1.989030763471e+002 1.972216788378e+002 1.974476766840e+002 1.971309139146e+002 1.981146561936e+002 1.984760776427e+002 1.983019946347e+002 1.986348246959e+002 1.991985720534e+002 1.991375051488e+002 1.971080025409e+002 1.987102142754e+002 1.980918250359e+002 1.982807225011e+002 1.984561348163e+002 1.986167222748e+002 1.986934392595e+002 1.987360701565e+002 1.985884391554e+002 1.982470486476e+002 1.984250489335e+002 1.980558397651e+002 1.992086406473e+002 1.991514825675e+002 1.990753759164e+002 1.988669210513e+002 1.989803913161e+002 1.970615185784e+002 1.972900664277e+002 1.975148918517e+002 1.976493762869e+002 1.969032577815e+002 1.992604991106e+002 1.968346332252e+002 1.986909960919e+002 1.986370533004e+002 1.984781645792e+002 1.983046322742e+002 1.981174260975e+002 1.991289433647e+002 1.991923437202e+002 1.971356202366e+002 1.991014463926e+002 1.990120446375e+002 1.989043069071e+002 1.972182079575e+002 1.974452858050e+002 1.977829301571e+002 1.992459991586e+002 1.977586595703e+002 1.992489440625e+002 1.987334171243e+002 1.987377870168e+002 1.985932360267e+002 1.984302288378e+002 1.982527448386e+002 1.980619203998e+002 1.992077343631e+002 1.991502108271e+002 1.990729368784e+002 1.989774276641e+002 1.988692307753e+002 1.972965539801e+002 1.988654151671e+002 1.982505601222e+002 1.984218027160e+002 1.985913995754e+002 1.989792070197e+002 1.990744015525e+002 1.975169637856e+002 1.991515991826e+002 1.972925670341e+002 1.992087212465e+002 1.970605088837e+002 1.967363585849e+002 1.991434390267e+002 1.970885054625e+002 1.992028755782e+002 1.982675706359e+002 1.986056972576e+002 1.984452897546e+002 1.980777591296e+002 1.972657114389e+002 1.990844184764e+002 1.974907565680e+002 1.989914164573e+002 1.988797769331e+002 1.987211753411e+002 1.967115003012e+002 1.992660699703e+002 1.989856511317e+002 1.992531102094e+002 1.992586626938e+002 1.992586600458e+002 1.977518645042e+002 1.978339874579e+002 1.968417507955e+002 1.970661651658e+002 1.992372743093e+002 1.967187110182e+002 1.992454492139e+002 1.992453343084e+002 1.969351049359e+002 1.988278944543e+002 1.989469717076e+002 1.975821649439e+002 1.990477139828e+002 1.973607416300e+002 1.985434866746e+002 1.983737837702e+002 1.981939015197e+002 1.987777822861e+002 1.992223973696e+002 1.969860801933e+002 1.991712793338e+002 1.976226454694e+002 1.979587329641e+002 1.977315884122e+002 1.966464800149e+002 1.966499696127e+002 1.992649813296e+002 1.979259182639e+002 1.992649808989e+002 1.978707238375e+002 1.980659059261e+002 1.975045381696e+002 1.979921022049e+002 1.966680777801e+002 1.992246847564e+002 1.974556910422e+002 1.976921346238e+002 1.978653958364e+002 1.977265935786e+002 1.968311808509e+002 1.966417582275e+002 1.967445665847e+002 1.975510520112e+002 1.966406849554e+002 1.967835858800e+002 1.977454181498e+002 1.966554446075e+002 1.966300930622e+002 1.978103117981e+002 1.976746339504e+002 1.978716626932e+002 1.977050713042e+002 1.992564712245e+002 1.969510058130e+002 1.970075400937e+002 1.987512521156e+002 1.987850105609e+002 1.992245184623e+002 1.991744744040e+002 1.992143733142e+002 1.991591812123e+002 1.990480348120e+002 1.989473541309e+002 1.973600335699e+002 1.988534370767e+002 1.988219489307e+002 1.980290545532e+002 1.979882355521e+002 1.982222608175e+002 1.981802911586e+002 1.983631679997e+002 1.984021367544e+002 1.985674397676e+002 1.985318497175e+002 1.972071828409e+002 1.992632141822e+002 1.992631861182e+002 1.992648585330e+002 1.992648592918e+002 1.975726650445e+002 1.992644076068e+002 1.986213154390e+002 1.984611895686e+002 1.982862019015e+002 1.980976858140e+002 1.987058968235e+002 1.987654375174e+002 1.988404496053e+002 1.989575228592e+002 1.975619935148e+002 1.990564857359e+002 1.973388304459e+002 1.991367987544e+002 1.971102601558e+002 1.991980633987e+002 1.991980491269e+002 1.991367780221e+002 1.992183782702e+002 1.990564062661e+002 1.989574274175e+0