<?xml version="1.0"?>
<VTKFile type="UnstructuredGrid" version="0.1" byte_order="LittleEndian">
  <UnstructuredGrid>
    <Piece NumberOfPoints="2604" NumberOfCells="4910">
      <Points>
        <DataArray type="Float64" NumberOfComponents="3" format="ascii">
          0.000000000000e+000 0.000000000000e+000 0.000000000000e+000
          2.000000000000e+002 0.000000000000e+000 0.000000000000e+000
          2.000000000000e+002 2.000000000000e+001 0.000000000000e+000
          0.000000000000e+000 2.000000000000e+001 0.000000000000e+000
          1.492537313427e+000 0.000000000000e+000 0.000000000000e+000
          2.985074626854e+000 0.000000000000e+000 0.000000000000e+000
          4.477611940281e+000 0.000000000000e+000 0.000000000000e+000
          5.970149253708e+000 0.000000000000e+000 0.000000000000e+000
          7.462686567135e+000 0.000000000000e+000 0.000000000000e+000
          8.955223880561e+000 0.000000000000e+000 0.000000000000e+000
          1.044776119399e+001 0.000000000000e+000 0.000000000000e+000
          1.194029850741e+001 0.000000000000e+000 0.000000000000e+000
          1.343283582084e+001 0.000000000000e+000 0.000000000000e+000
          1.492537313427e+001 0.000000000000e+000 0.000000000000e+000
          1.641791044770e+001 0.000000000000e+000 0.000000000000e+000
          1.791044776112e+001 0.000000000000e+000 0.000000000000e+000
          1.940298507455e+001 0.000000000000e+000 0.000000000000e+000
          2.089552238798e+001 0.000000000000e+000 0.000000000000e+000
          2.238805970141e+001 0.000000000000e+000 0.000000000000e+000
          2.388059701484e+001 0.000000000000e+000 0.000000000000e+000
          2.537313432826e+001 0.000000000000e+000 0.000000000000e+000
          2.686567164169e+001 0.000000000000e+000 0.000000000000e+000
          2.835820895511e+001 0.000000000000e+000 0.000000000000e+000
          2.985074626854e+001 0.000000000000e+000 0.000000000000e+000
          3.134328358196e+001 0.000000000000e+000 0.000000000000e+000
          3.283582089539e+001 0.000000000000e+000 0.000000000000e+000
          3.432835820881e+001 0.000000000000e+000 0.000000000000e+000
          3.582089552224e+001 0.000000000000e+000 0.000000000000e+000
          3.731343283566e+001 0.000000000000e+000 0.000000000000e+000
          3.880597014909e+001 0.000000000000e+000 0.000000000000e+000
          4.029850746251e+001 0.000000000000e+000 0.000000000000e+000
          4.179104477594e+001 0.000000000000e+000 0.000000000000e+000
          4.328358208936e+001 0.000000000000e+000 0.000000000000e+000
          4.477611940279e+001 0.000000000000e+000 0.000000000000e+000
          4.626865671621e+001 0.000000000000e+000 0.000000000000e+000
          4.776119402964e+001 0.000000000000e+000 0.000000000000e+000
          4.925373134306e+001 0.000000000000e+000 0.000000000000e+000
          5.074626865649e+001 0.000000000000e+000 0.000000000000e+000
          5.223880596991e+001 0.000000000000e+000 0.000000000000e+000
          5.373134328334e+001 0.000000000000e+000 0.000000000000e+000
          5.522388059676e+001 0.000000000000e+000 0.000000000000e+000
          5.671641791019e+001 0.000000000000e+000 0.000000000000e+000
          5.820895522361e+001 0.000000000000e+000 0.000000000000e+000
          5.970149253704e+001 0.000000000000e+000 0.000000000000e+000
          6.119402985046e+001 0.000000000000e+000 0.000000000000e+000
          6.268656716389e+001 0.000000000000e+000 0.000000000000e+000
          6.417910447732e+001 0.000000000000e+000 0.000000000000e+000
          6.567164179075e+001 0.000000000000e+000 0.000000000000e+000
          6.716417910418e+001 0.000000000000e+000 0.000000000000e+000
          6.865671641761e+001 0.000000000000e+000 0.000000000000e+000
          7.014925373104e+001 0.000000000000e+000 0.000000000000e+000
          7.164179104447e+001 0.000000000000e+000 0.000000000000e+000
          7.313432835790e+001 0.000000000000e+000 0.000000000000e+000
          7.462686567133e+001 0.000000000000e+000 0.000000000000e+000
          7.611940298476e+001 0.000000000000e+000 0.000000000000e+000
          7.761194029819e+001 0.000000000000e+000 0.000000000000e+000
          7.910447761162e+001 0.000000000000e+000 0.000000000000e+000
          8.059701492505e+001 0.000000000000e+000 0.000000000000e+000
          8.208955223848e+001 0.000000000000e+000 0.000000000000e+000
          8.358208955191e+001 0.000000000000e+000 0.000000000000e+000
          8.507462686534e+001 0.000000000000e+000 0.000000000000e+000
          8.656716417877e+001 0.000000000000e+000 0.000000000000e+000
          8.805970149220e+001 0.000000000000e+000 0.000000000000e+000
          8.955223880563e+001 0.000000000000e+000 0.000000000000e+000
          9.104477611907e+001 0.000000000000e+000 0.000000000000e+000
          9.253731343250e+001 0.000000000000e+000 0.000000000000e+000
          9.402985074593e+001 0.000000000000e+000 0.000000000000e+000
          9.552238805936e+001 0.000000000000e+000 0.000000000000e+000
          9.701492537279e+001 0.000000000000e+000 0.000000000000e+000
          9.850746268622e+001 0.000000000000e+000 0.000000000000e+000
          9.999999999965e+001 0.000000000000e+000 0.000000000000e+000
          1.014925373131e+002 0.000000000000e+000 0.000000000000e+000
          1.029850746265e+002 0.000000000000e+000 0.000000000000e+000
          1.044776119399e+002 0.000000000000e+000 0.000000000000e+000
          1.059701492534e+002 0.000000000000e+000 0.000000000000e+000
          1.074626865668e+002 0.000000000000e+000 0.000000000000e+000
          1.089552238802e+002 0.000000000000e+000 0.000000000000e+000
          1.104477611937e+002 0.000000000000e+000 0.000000000000e+000
          1.119402985071e+002 0.000000000000e+000 0.000000000000e+000
          1.134328358205e+002 0.000000000000e+000 0.000000000000e+000
          1.149253731340e+002 0.000000000000e+000 0.000000000000e+000
          1.164179104474e+002 0.000000000000e+000 0.000000000000e+000
          1.179104477608e+002 0.000000000000e+000 0.000000000000e+000
          1.194029850742e+002 0.000000000000e+000 0.000000000000e+000
          1.208955223877e+002 0.000000000000e+000 0.000000000000e+000
          1.223880597011e+002 0.000000000000e+000 0.000000000000e+000
          1.238805970145e+002 0.000000000000e+000 0.000000000000e+000
          1.253731343280e+002 0.000000000000e+000 0.000000000000e+000
          1.268656716414e+002 0.000000000000e+000 0.000000000000e+000
          1.283582089548e+002 0.000000000000e+000 0.000000000000e+000
          1.298507462683e+002 0.000000000000e+000 0.000000000000e+000
          1.313432835817e+002 0.000000000000e+000 0.000000000000e+000
          1.328358208952e+002 0.000000000000e+000 0.000000000000e+000
          1.343283582086e+002 0.000000000000e+000 0.000000000000e+000
          1.358208955220e+002 0.000000000000e+000 0.000000000000e+000
          1.373134328355e+002 0.000000000000e+000 0.000000000000e+000
          1.388059701489e+002 0.000000000000e+000 0.000000000000e+000
          1.402985074624e+002 0.000000000000e+000 0.000000000000e+000
          1.417910447758e+002 0.000000000000e+000 0.000000000000e+000
          1.432835820892e+002 0.000000000000e+000 0.000000000000e+000
          1.447761194027e+002 0.000000000000e+000 0.000000000000e+000
          1.462686567161e+002 0.000000000000e+000 0.000000000000e+000
          1.477611940296e+002 0.000000000000e+000 0.000000000000e+000
          1.492537313430e+002 0.000000000000e+000 0.000000000000e+000
          1.507462686564e+002 0.000000000000e+000 0.000000000000e+000
          1.522388059699e+002 0.000000000000e+000 0.000000000000e+000
          1.537313432833e+002 0.000000000000e+000 0.000000000000e+000
          1.552238805968e+002 0.000000000000e+000 0.000000000000e+000
          1.567164179102e+002 0.000000000000e+000 0.000000000000e+000
          1.582089552237e+002 0.000000000000e+000 0.000000000000e+000
          1.597014925371e+002 0.000000000000e+000 0.000000000000e+000
          1.611940298505e+002 0.000000000000e+000 0.000000000000e+000
          1.626865671640e+002 0.000000000000e+000 0.000000000000e+000
          1.641791044774e+002 0.000000000000e+000 0.000000000000e+000
          1.656716417909e+002 0.000000000000e+000 0.000000000000e+000
          1.671641791043e+002 0.000000000000e+000 0.000000000000e+000
          1.686567164177e+002 0.000000000000e+000 0.000000000000e+000
          1.701492537312e+002 0.000000000000e+000 0.000000000000e+000
          1.716417910446e+002 0.000000000000e+000 0.000000000000e+000
          1.731343283581e+002 0.000000000000e+000 0.000000000000e+000
          1.746268656715e+002 0.000000000000e+000 0.000000000000e+000
          1.761194029849e+002 0.000000000000e+000 0.000000000000e+000
          1.776119402984e+002 0.000000000000e+000 0.000000000000e+000
          1.791044776118e+002 0.000000000000e+000 0.000000000000e+000
          1.805970149253e+002 0.000000000000e+000 0.000000000000e+000
          1.820895522387e+002 0.000000000000e+000 0.000000000000e+000
          1.835820895521e+002 0.000000000000e+000 0.000000000000e+000
          1.850746268656e+002 0.000000000000e+000 0.000000000000e+000
          1.865671641790e+002 0.000000000000e+000 0.000000000000e+000
          1.880597014925e+002 0.000000000000e+000 0.000000000000e+000
          1.895522388059e+002 0.000000000000e+000 0.000000000000e+000
          1.910447761194e+002 0.000000000000e+000 0.000000000000e+000
          1.925373134328e+002 0.000000000000e+000 0.000000000000e+000
          1.940298507462e+002 0.000000000000e+000 0.000000000000e+000
          1.955223880597e+002 0.000000000000e+000 0.000000000000e+000
          1.970149253731e+002 0.000000000000e+000 0.000000000000e+000
          1.985074626866e+002 0.000000000000e+000 0.000000000000e+000
          2.000000000000e+002 1.428571428570e+000 0.000000000000e+000
          2.000000000000e+002 2.857142857140e+000 0.000000000000e+000
[...]
      <PointData Scalars="MEAN_PRESSURE">
        <DataArray type="Float64" Name="MEAN_PRESSURE" format="ascii">
          2.000000000000e+002 1.991474710532e+002 1.991474695505e+002 2.000000000000e+002 1.994942430881e+002 1.984803723208e+002 1.977972863848e+002 1.973228213403e+002 1.970113064386e+002 1.968228944051e+002 1.967159894838e+002 1.966674812260e+002 1.966556992858e+002 1.966666390532e+002 1.966901471548e+002 1.967204210200e+002 1.967536460872e+002 1.967877724182e+002 1.968217983811e+002 1.968553126247e+002 1.968882449967e+002 1.969206089565e+002 1.969525527910e+002 1.969841851089e+002 1.970155936091e+002 1.970468383786e+002 1.970779663987e+002 1.971090030756e+002 1.971399596187e+002 1.971708435897e+002 1.972016552509e+002 1.972323936687e+002 1.972630517446e+002 1.972936257632e+002 1.973241096673e+002 1.973544964171e+002 1.973847823135e+002 1.974149585292e+002 1.974450213765e+002 1.974749664430e+002 1.975047843846e+002 1.975344676318e+002 1.975640168275e+002 1.975934225892e+002 1.976226817974e+002 1.976517878176e+002 1.976807385568e+002 1.977095195990e+002 1.977381388010e+002 1.977665804916e+002 1.977948419710e+002 1.978229204120e+002 1.978508146173e+002 1.978785047439e+002 1.979060012547e+002 1.979332948340e+002 1.979603830838e+002 1.979872536011e+002 1.980139050786e+002 1.980403449936e+002 1.980665464561e+002 1.980925178972e+002 1.981182537625e+002 1.981437542651e+002 1.981690083589e+002 1.981940138596e+002 1.982187674770e+002 1.982432624205e+002 1.982674994116e+002 1.982914684188e+002 1.983151744422e+002 1.983386025811e+002 1.983617581449e+002 1.983846325967e+002 1.984072222620e+002 1.984295279305e+002 1.984515396345e+002 1.984732629381e+002 1.984946864111e+002 1.985158106917e+002 1.985366268447e+002 1.985571413510e+002 1.985773426711e+002 1.985972340032e+002 1.986168073555e+002 1.986360613513e+002 1.986549953583e+002 1.986736045885e+002 1.986918864738e+002 1.987098390710e+002 1.987274597543e+002 1.987447466234e+002 1.987616973973e+002 1.987783071784e+002 1.987945720798e+002 1.988104974957e+002 1.988260729620e+002 1.988413007426e+002 1.988561792426e+002 1.988707076446e+002 1.988848803744e+002 1.988986937878e+002 1.989121538405e+002 1.989252500340e+002 1.989379852370e+002 1.989503583388e+002 1.989623690071e+002 1.989740119415e+002 1.989852838326e+002 1.989961912616e+002 1.990067237633e+002 1.990168845079e+002 1.990266736278e+002 1.990360920156e+002 1.990451321980e+002 1.990537921958e+002 1.990620797214e+002 1.990699841071e+002 1.990775089240e+002 1.990846542588e+002 1.990914217226e+002 1.990978066678e+002 1.991038052335e+002 1.991094198909e+002 1.991146494506e+002 1.991194904087e+002 1.991239501940e+002 1.991280280271e+002 1.991317130572e+002 1.991350191922e+002 1.991379431233e+002 1.991404594661e+002 1.991425940665e+002 1.991443422429e+002 1.991457238266e+002 1.991466573383e+002 1.991472581949e+002 1.991474502592e+002 1.991474308965e+002 1.991474729474e+002 1.991474645098e+002 1.991474603747e+002 1.991474527867e+002 1.991474478073e+002 1.991474512598e+002 1.991474516581e+002 1.991474421616e+002 1.991474684055e+002 1.991474285112e+002 1.991474486004e+002 1.991472568412e+002 1.991466562631e+002 1.991457228960e+002 1.991443413248e+002 1.991425933577e+002 1.991404599890e+002 1.991379448388e+002 1.991350211509e+002 1.991317148904e+002 1.991280297324e+002 1.991239506063e+002 1.991194911271e+002 1.991146492227e+002 1.991094186491e+002 1.991038043127e+002 1.990978048226e+002 1.990914194219e+002 1.990846591917e+002 1.990775129706e+002 1.990699851342e+002 1.990620794725e+002 1.990537934077e+002 1.990451289911e+002 1.990360914771e+002 1.990266763680e+002 1.990168882035e+002 1.990067237394e+002 1.989961901142e+002 1.989852816799e+002 1.989740106778e+002 1.989623672967e+002 1.989503589970e+002 1.989379864814e+002 1.989252475468e+002 1.989121522289e+002 1.988986922033e+002 1.988848799379e+002 1.988707066609e+002 1.988561801839e+002 1.988413017911e+002 1.988260702827e+002 1.988104959644e+002 1.987945710323e+002 1.987783073408e+002 1.987616971610e+002 1.987447445786e+002 1.987274606657e+002 1.987098397130e+002 1.986918867842e+002 1.986736045956e+002 1.986549963339e+002 1.986360647269e+002 1.986168101016e+002 1.985972338223e+002 1.985773458832e+002 1.985571415353e+002 1.985366275434e+002 1.985158078057e+002 1.984946875390e+002 1.984732626625e+002 1.984515428699e+002 1.984295292353e+002 1.984072232714e+002 1.983846307603e+002 1.983617562328e+002 1.983386036739e+002 1.983151733729e+002 1.982914705355e+002 1.982674982862e+002 1.982432623298e+002 1.982187654022e+002 1.981940126271e+002 1.981690086382e+002 1.981437546309e+002 1.981182561824e+002 1.980925169592e+002 1.980665429148e+002 1.980403373196e+002 1.980139054488e+002 1.979872530959e+002 1.979603817727e+002 1.979332970250e+002 1.979060027965e+002 1.978785055040e+002 1.978508086885e+002 1.978229186639e+002 1.977948400054e+002 1.977665736310e+002 1.977381334664e+002 1.977095185291e+002 1.976807327209e+002 1.976517853441e+002 1.976226752565e+002 1.975934124656e+002 1.975640035795e+002 1.975344502956e+002 1.975047593171e+002 1.974749367335e+002 1.974449865356e+002 1.974149135024e+002 1.973847254823e+002 1.973544247781e+002 1.973240179894e+002 1.972935101664e+002 1.972629062133e+002 1.972322091352e+002 1.972014221985e+002 1.971705488143e+002 1.971395858327e+002 1.971085298386e+002 1.970773697526e+002 1.970460854808e+002 1.970146404510e+002 1.969829800782e+002 1.969510248402e+002 1.969186662639e+002 1.968857763785e+002 1.968522110096e+002 1.968179058714e+002 1.967828713149e+002 1.967475132853e+002 1.967127907196e+002 1.966807185861e+002 1.966547805956e+002 1.966417008448e+002 1.966511664987e+002 1.966979058467e+002 1.967998324650e+002 1.969903424370e+002 1.973040561072e+002 1.977766627895e+002 1.984669264273e+002 1.994770875876e+002 2.000000000000e+002 2.000000000000e+002 2.000000000000e+002 2.000000000000e+002 2.000000000000e+002 2.000000000000e+002 2.000000000000e+002 2.000000000000e+002 2.000000000000e+002 2.000000000000e+002 2.000000000000e+002 2.000000000000e+002 2.000000000000e+002 1.991387100870e+002 1.967355987225e+002 1.991122478193e+002 1.990662289893e+002 1.990008380963e+002 1.989179207617e+002 1.988173462477e+002 1.969357459039e+002 1.987008970127e+002 1.971571709614e+002 1.973715141044e+002 1.975823907853e+002 1.978899320273e+002 1.980795539397e+002 1.982554066321e+002 1.984184044247e+002 1.985672729063e+002 1.967363833709e+002 1.977381373273e+002 1.986360571226e+002 1.986351797083e+002 1.984946869375e+002 1.983386029844e+002 1.981690092046e+002 1.979872546250e+002 1.990924169614e+002 1.990374868500e+002 1.989637465904e+002 1.979872504512e+002 1.981644967795e+002 1.983404818004e+002 1.984908636798e+002 1.988723838220e+002 1.987616908232e+002 1.970450963443e+002 1.972594108609e+002 1.974783237717e+002 1.987624754596e+002 1.988708452901e+002 1.989624812450e+002 1.990360822586e+002 1.990914120820e+002 1.974746368161e+002 1.972626268524e+002 1.970462522930e+002 1.991276206382e+002 1.991273758514e+002 1.976766042968e+002 1.978023709468e+002 1.966576602937e+002 1.968233133834e+002 1.991443997960e+002 1.973159717064e+002 1.991444482185e+002 1.973162037711e+002 1.966539116195e+002 1.968503394366e+002 1.976451670060e+002 1.978269107449e+002 1.991120874973e+002 1.985672755696e+002 1.990660728101e+002 1.984184114940e+002 1.982554135995e+002 1.980795593433e+002 1.978981152056e+002 1.987007236871e+002 1.990016827957e+002 1.989199054823e+002 1.988197102094e+002 1.971547894058e+002 1.973669429481e+002 1.987010708541e+002 1.988183210920e+002 1.989187402945e+002 1.990014972851e+002 1.980795133970e+002 1.982553693888e+002 1.984183682355e+002 1.990660728693e+002 1.985676399409e+002 1.991120810896e+002 1.975787292600e+002 1.973695957934e+002 1.971551244461e+002 1.969351416855e+002 1.991376087000e+002 1.991377907058e+002 1.966939341463e+002 1.969529927567e+002 1.979115841931e+002 1.975561646333e+002 1.991458562538e+002 1.978532437485e+002 1.967399000384e+002 1.967447373314e+002 1.967341016165e+002 1.977217527781e+002 1.976616722053e+002 1.978143609542e+002 1.966520108264e+002 1.968285006170e+002 1.977387809869e+002 1.991305920999e+002 1.989728850043e+002 1.990270120208e+002 1.988835072248e+002 1.990848942567e+002 1.987766813195e+002 1.985122657894e+002 1.981898160487e+002 1.980094309708e+002 1.983594961640e+002 1.970765125033e+002 1.974479260962e+002 1.972352977878e+002 1.986186814901e+002 1.977381350151e+002 1.991464764121e+002 1.983336931775e+002 1.991464763846e+002 1.983068072773e+002 1.985233251405e+002 1.983700102488e+002 1.982029407861e+002 1.980234353978e+002 1.987385538618e+002 1.986090118754e+002 1.986617176858e+002 1.988508564605e+002 1.975154548571e+002 1.989459381899e+002 1.973045032054e+002 1.990231817528e+002 1.970886299926e+002 1.990821149040e+002 1.990818427907e+002 1.991004345178e+002 1.990228038741e+002 1.990484562506e+002 1.989447897232e+002 1.989776617346e+002 1.988494728149e+002 1.988893488726e+002 1.970933159269e+002 1.987834586519e+002 1.987385052660e+002 1.973074593323e+002 1.972224949174e+002 1.980235721846e+002 1.982039497766e+002 1.983718468685e+002 1.981355095756e+002 1.983074136826e+002 1.985223928771e+002 1.984662464808e+002 1.974428580278e+002 1.986617671199e+002 1.986127052822e+002 1.991000052396e+002 1.970033485398e+002 1.990469420368e+002 1.972257395235e+002 1.989764109111e+002 1.974386591340e+002 1.988878139024e+002 1.979462792663e+002 1.981320431165e+002 1.983042925751e+002 1.984629086101e+002 1.987817566901e+002 1.967211966237e+002 1.991221225162e+002 1.991219241396e+002 1.978322447051e+002 1.976389621017e+002 1.968678613464e+002 1.986601072395e+002 1.983081087257e+002 1.984672488504e+002 1.981366891788e+002 1.979468302166e+002 1.970057794929e+002 1.973019375951e+002 1.990996269655e+002 1.975136562535e+002 1.990475321415e+002 1.989469983473e+002 1.987400427031e+002 1.988521326135e+002 1.970148247694e+002 1.991318478257e+002 1.991318471219e+002 1.977827525115e+002 1.966418424958e+002 1.991225430079e+002 1.986752691123e+002 1.987261496190e+002 1.988401485375e+002 1.975349896770e+002 1.989370242678e+002 1.973263754433e+002 1.981163423113e+002 1.982896874769e+002 1.984499083579e+002 1.991039155903e+002 1.969827843754e+002 1.990544396227e+002 1.968056004463e+002 1.979356008282e+002 1.991425043013e+002 1.991422655270e+002 1.991189188595e+002 1.979638260473e+002 1.975010852569e+002 1.978540802147e+002 1.976183518519e+002 1.969819639022e+002 1.968916542051e+002 1.966490509229e+002 1.966753466635e+002 1.968923512851e+002 1.985356481990e+002 1.983839130382e+002 1.982179855415e+002 1.980395044029e+002 1.990174038955e+002 1.971070789598e+002 1.990779059093e+002 1.985964219523e+002 1.987941357670e+002 1.990164865530e+002 1.988992781567e+002 1.990772229658e+002 1.989857565701e+002 1.985381123275e+002 1.983838497896e+002 1.982197922610e+002 1.980414350078e+002 1.971101646816e+002 1.974158022229e+002 1.972002994641e+002 1.972002012748e+002 1.989857491216e+002 1.974136648336e+002 1.988992604645e+002 1.987952406507e+002 1.985964068558e+002 1.991465754568e+002 1.991466329591e+002 1.984225939951e+002 1.983214793580e+002 1.991429411943e+002 1.970380269758e+002 1.991349920124e+002 1.991355322048e+002 1.968345763642e+002 1.991410194882e+002 1.966819015665e+002 1.970764574744e+002 1.976108867530e+002 1.978625566064e+002 1.969105267328e+002 1.966600640886e+002 1.975910152017e+002 1.967900724189e+002 1.967842778224e+002 1.978819071291e+002 1.966988025129e+002 1.976642946266e+002 1.977796710331e+002 1.966776124042e+002 1.973170070822e+002 1.987324655085e+002 1.988447998084e+002 1.989409008071e+002 1.990528370109e+002 1.991032018157e+002 1.986683088679e+002 1.979390327093e+002 1.981234951153e+002 1.982963437394e+002 1.984560121827e+002 1.976950578766e+002 1.967901885853e+002 1.977855489215e+002 1.976872166892e+002 1.991200921861e+002 1.991402926159e+002 1.969916576123e+002 1.975210375487e+002 1.968829295607e+002 1.972056163106e+002 1.991439743167e+002 1.966902362540e+002 1.985561756331e+002 1.984061586810e+002 1.982421097342e+002 1.980653103051e+002 1.987094012996e+002 1.986923182121e+002 1.985785933758e+002 1.988267847877e+002 1.989258448809e+002 1.975626170298e+002 1.990071981758e+002 1.973529986321e+002 1.990703346821e+002 1.971381416639e+002 1.991092847361e+002 1.990700651843e+002 1.990073652478e+002 1.989262426392e+002 1.988272581602e+002 1.971380000567e+002 1.973521231816e+002 1.980662628027e+002 1.982419173843e+002 1.984059818512e+002 1.991091561568e+002 1.969525842975e+002 1.979086086690e+002 1.991124784545e+002 1.991364709276e+002 1.991364735005e+002 1.969678801025e+002 1.968837580494e+002 1.966685879548e+002 1.977691797863e+002 1.990950057609e+002 1.990411492360e+002 1.989557443351e+002 1.988626853150e+002 1.987508303386e+002 1.970289963646e+002 1.972799502112e+002 1.974915101112e+002 1.984835183446e+002 1.981558311040e+002 1.979734524401e+002 1.983235661752e+002 1.986482768332e+002 1.991253914689e+002 1.991448692419e+002 1.991448704210e+002 1.990647196594e+002 1.989208329146e+002 1.988208137877e+002 1.973647832883e+002 1.980839712315e+002 1.982595296897e+002 1.984221978471e+002 1.974626605304e+002 1.977077100736e+002 1.987042461110e+002 1.986976419118e+002 1.978974844939e+002 1.991470219903e+002 1.989208046105e+002 1.975420138031e+002 1.979270789656e+002 1.987610662660e+002 1.988701665052e+002 1.989619214524e+002 1.990914145569e+002 1.990361059734e+002 1.974760457073e+002 1.972640482634e+002 1.970461068404e+002 1.983386016308e+002 1.984946859931e+002 1.979872506578e+002 1.981690068136e+002 1.990914105523e+002 1.990360856669e+002 1.981690014389e+002 1.983390014461e+002 1.989623583800e+002 1.984948765573e+002 1.988706982540e+002 1.987618466009e+002 1.972630449183e+002 1.986367674301e+002 1.986360562570e+002 1.967690101132e+002 1.976188904887e+002 1.967573073482e+002 1.979493387057e+002 1.977453021815e+002 1.991328313893e+002 1.991324970946e+002 1.978222430837e+002 1.978380893595e+002 1.977584249553e+002 1.987174862742e+002 1.985483221156e+002 1.985859688184e+002 1.986840336038e+002 1.984390645947e+002 1.982778778910e+002 1.981036557846e+002 1.988036627811e+002 1.971841453339e+002 1.973978211226e+002 1.990590836915e+002 1.989915239197e+002 1.989063841406e+002 1.990585474573e+002 1.971838943715e+002 1.989915271106e+002 1.973977723377e+002 1.981036578390e+002 1.982778799966e+002 1.984360017739e+002 1.989063863283e+002 1.988036638844e+002 1.975863616390e+002 1.966443195317e+002 1.991451028689e+002 1.975428145640e+002 1.985680144849e+002 1.985665363374e+002 1.971544411280e+002 1.971540514303e+002 1.990018795351e+002 1.990017912264e+002 1.991418373387e+002 1.966974295247e+002 1.968140154219e+002 1.969546183214e+002 1.967312310069e+002 1.991470585146e+002 1.990143768112e+002 1.991470816802e+002 1.989446953598e+002 1.966612550510e+002 1.991166069658e+002 1.991166997754e+002 1.988178842932e+002 1.989183728509e+002 1.973704614930e+002 1.984174307866e+002 1.980784172771e+002 1.982543459758e+002 1.990661522568e+002 1.968445373510e+002 1.968510248395e+002 1.966576789879e+002 1.978679572608e+002 1.976048654250e+002 1.966660044502e+002 1.969063513925e+002 1.970538449892e+002 1.976580441306e+002 1.968755332510e+002 1.991271126828e+002 1.991271132505e+002 1.976365096623e+002 1.978471772814e+002 1.991219258481e+002 1.975565971951e+002 1.978521901817e+002 1.978196986282e+002 1.990478652262e+002 1.970037131224e+002 1.990999473731e+002 1.981165997953e+002 1.982894941621e+002 1.984501277381e+002 1.986763745362e+002 1.973056189304e+002 1.989454918292e+002 1.975162517233e+002 1.988503192982e+002 1.987248256613e+002 1.991119416859e+002 1.967852519223e+002 1.977831750473e+002 1.977152559367e+002 1.975778780936e+002 1.966603821272e+002 1.991471179152e+002 1.990853789058e+002 1.991471193245e+002 1.991625910739e+002 1.969009990374e+002 1.969367793329e+002 1.977337460757e+002 1.976589477791e+002 1.991420332431e+002 1.974642928318e+002 1.979949970224e+002 1.968479667950e+002 1.978717312657e+002 1.967090767332e+002 1.987829436636e+002 1.988888227503e+002 1.989772353708e+002 1.974364638317e+002 1.972235103426e+002 1.989865769912e+002 1.990767340640e+002 1.989002906387e+002 1.990158532914e+002 1.987964646118e+002 1.971979898191e+002 1.974114014206e+002 1.971122983639e+002 1.980431103419e+002 1.983873016613e+002 1.982213082182e+002 1.985390583768e+002 1.990816653706e+002 1.990225682183e+002 1.970906478851e+002 1.986112708878e+002 1.980214212891e+002 1.982010528881e+002 1.983682643364e+002 1.985217333608e+002 1.985951942976e+002 1.986360592789e+002 1.984946747611e+002 1.981689994799e+002 1.983386005462e+002 1.979872467495e+002 1.990914175773e+002 1.990360870832e+002 1.989625304237e+002 1.987616938113e+002 1.988709061661e+002 1.970467209805e+002 1.972625497277e+002 1.974749166425e+002 1.976020786977e+002 1.968963884811e+002 1.991416854016e+002 1.968964743939e+002 1.985928533533e+002 1.985411917188e+002 1.983892942382e+002 1.982238203832e+002 1.980457422173e+002 1.990142894577e+002 1.990756339187e+002 1.971167373828e+002 1.989877128577e+002 1.989014184017e+002 1.987976486504e+002 1.971947113233e+002 1.974091422764e+002 1.977284820749e+002 1.991276236076e+002 1.977055010839e+002 1.991304791104e+002 1.986335153263e+002 1.986377056504e+002 1.984992629726e+002 1.983435426587e+002 1.981744205102e+002 1.979930204069e+002 1.990905396778e+002 1.990348568838e+002 1.989601752143e+002 1.988680503763e+002 1.987639144197e+002 1.972686758183e+002 1.987602461360e+002 1.981723411020e+002 1.983355036802e+002 1.984975061779e+002 1.988697649819e+002 1.989615895515e+002 1.974768747810e+002 1.990361999439e+002 1.972649086622e+002 1.990914956807e+002 1.970457540077e+002 1.967373683104e+002 1.990283068705e+002 1.970722277510e+002 1.990858333678e+002 1.981885321248e+002 1.985111840117e+002 1.983579135934e+002 1.980080614555e+002 1.972395551518e+002 1.989712633077e+002 1.974521070506e+002 1.988815315844e+002 1.987740546620e+002 1.986217780538e+002 1.967599719749e+002 1.991470892964e+002 1.990282731873e+002 1.991345191295e+002 1.991399041913e+002 1.991399016245e+002 1.976990677537e+002 1.977768423327e+002 1.968374813929e+002 1.970511193999e+002 1.991191648981e+002 1.967701500643e+002 1.991270903834e+002 1.991269789711e+002 1.969267847322e+002 1.987241898462e+002 1.988387136903e+002 1.975385124314e+002 1.989358270583e+002 1.973292838937e+002 1.984516948033e+002 1.982897111718e+002 1.981184384422e+002 1.986760746323e+002 1.991047459878e+002 1.969752555086e+002 1.990552421825e+002 1.975767937113e+002 1.978950927832e+002 1.976798731619e+002 1.966603018295e+002 1.966835876829e+002 1.991460332231e+002 1.979988588318e+002 1.991460328060e+002 1.979454719050e+002 1.979968046417e+002 1.974651314999e+002 1.979267493771e+002 1.966765161477e+002 1.991069626085e+002 1.975323739779e+002 1.976425334001e+002 1.978066022950e+002 1.976751453083e+002 1.968273600515e+002 1.966541623731e+002 1.967450164427e+002 1.975090971375e+002 1.966532146506e+002 1.967819203316e+002 1.976929650591e+002 1.966963726720e+002 1.966512257960e+002 1.977544146164e+002 1.976259739664e+002 1.978125411386e+002 1.976547753440e+002 1.991377787065e+002 1.970180277167e+002 1.969956248814e+002 1.986506198418e+002 1.986830118349e+002 1.991068014411e+002 1.990583345421e+002 1.990969711728e+002 1.990435350576e+002 1.989361365170e+002 1.988390817227e+002 1.973286160774e+002 1.987487324801e+002 1.987184787250e+002 1.979618182894e+002 1.979230808991e+002 1.981454135096e+002 1.981054954665e+002 1.982795915478e+002 1.983167457449e+002 1.984745928349e+002 1.984405733077e+002 1.972837476073e+002 1.991443190005e+002 1.991442917806e+002 1.991459141008e+002 1.991459148376e+002 1.976504534229e+002 1.991454766745e+002 1.985261284682e+002 1.983730886877e+002 1.982062695169e+002 1.980269880454e+002 1.986071325190e+002 1.986642286229e+002 1.987362519437e+002 1.988488749402e+002 1.975194406080e+002 1.989442930342e+002 1.973085911860e+002 1.990218850422e+002 1.970927788393e+002 1.990811727215e+002 1.990811588885e+002 1.990218649702e+002 1.991008515478e+002 1.989442163351e+002 1.988487830324e+0