<?xml version="1.0"?>
<VTKFile type="UnstructuredGrid" version="0.1" byte_order="LittleEndian">
  <UnstructuredGrid>
    <Piece NumberOfPoints="2604" NumberOfCells="4910">
      <Points>
        <DataArray type="Float64" NumberOfComponents="3" format="ascii">
          0.000000000000e+000 0.000000000000e+000 0.000000000000e+000
          2.000000000000e+002 0.000000000000e+000 0.000000000000e+000
          2.000000000000e+002 2.000000000000e+001 0.000000000000e+000
          0.000000000000e+000 2.000000000000e+001 0.000000000000e+000
          1.492537313427e+000 0.000000000000e+000 0.000000000000e+000
          2.985074626854e+000 0.000000000000e+000 0.000000000000e+000
          4.477611940281e+000 0.000000000000e+000 0.000000000000e+000
          5.970149253708e+000 0.000000000000e+000 0.000000000000e+000
          7.462686567135e+000 0.000000000000e+000 0.000000000000e+000
          8.955223880561e+000 0.000000000000e+000 0.000000000000e+000
          1.044776119399e+001 0.000000000000e+000 0.000000000000e+000
          1.194029850741e+001 0.000000000000e+000 0.000000000000e+000
          1.343283582084e+001 0.000000000000e+000 0.000000000000e+000
          1.492537313427e+001 0.000000000000e+000 0.000000000000e+000
          1.641791044770e+001 0.000000000000e+000 0.000000000000e+000
          1.791044776112e+001 0.000000000000e+000 0.000000000000e+000
          1.940298507455e+001 0.000000000000e+000 0.000000000000e+000
          2.089552238798e+001 0.000000000000e+000 0.000000000000e+000
          2.238805970141e+001 0.000000000000e+000 0.000000000000e+000
          2.388059701484e+001 0.000000000000e+000 0.000000000000e+000
          2.537313432826e+001 0.000000000000e+000 0.000000000000e+000
          2.686567164169e+001 0.000000000000e+000 0.000000000000e+000
          2.835820895511e+001 0.000000000000e+000 0.000000000000e+000
          2.985074626854e+001 0.000000000000e+000 0.000000000000e+000
          3.134328358196e+001 0.000000000000e+000 0.000000000000e+000
          3.283582089539e+001 0.000000000000e+000 0.000000000000e+000
          3.432835820881e+001 0.000000000000e+000 0.000000000000e+000
          3.582089552224e+001 0.000000000000e+000 0.000000000000e+000
          3.731343283566e+001 0.000000000000e+000 0.000000000000e+000
          3.880597014909e+001 0.000000000000e+000 0.000000000000e+000
          4.029850746251e+001 0.000000000000e+000 0.000000000000e+000
          4.179104477594e+001 0.000000000000e+000 0.000000000000e+000
          4.328358208936e+001 0.000000000000e+000 0.000000000000e+000
          4.477611940279e+001 0.000000000000e+000 0.000000000000e+000
          4.626865671621e+001 0.000000000000e+000 0.000000000000e+000
          4.776119402964e+001 0.000000000000e+000 0.000000000000e+000
          4.925373134306e+001 0.000000000000e+000 0.000000000000e+000
          5.074626865649e+001 0.000000000000e+000 0.000000000000e+000
          5.223880596991e+001 0.000000000000e+000 0.000000000000e+000
          5.373134328334e+001 0.000000000000e+000 0.000000000000e+000
          5.522388059676e+001 0.000000000000e+000 0.000000000000e+000
          5.671641791019e+001 0.000000000000e+000 0.000000000000e+000
          5.820895522361e+001 0.000000000000e+000 0.000000000000e+000
          5.970149253704e+001 0.000000000000e+000 0.000000000000e+000
          6.119402985046e+001 0.000000000000e+000 0.000000000000e+000
          6.268656716389e+001 0.000000000000e+000 0.000000000000e+000
          6.417910447732e+001 0.000000000000e+000 0.000000000000e+000
          6.567164179075e+001 0.000000000000e+000 0.000000000000e+000
          6.716417910418e+001 0.000000000000e+000 0.000000000000e+000
          6.865671641761e+001 0.000000000000e+000 0.000000000000e+000
          7.014925373104e+001 0.000000000000e+000 0.000000000000e+000
          7.164179104447e+001 0.000000000000e+000 0.000000000000e+000
          7.313432835790e+001 0.000000000000e+000 0.000000000000e+000
          7.462686567133e+001 0.000000000000e+000 0.000000000000e+000
          7.611940298476e+001 0.000000000000e+000 0.000000000000e+000
          7.761194029819e+001 0.000000000000e+000 0.000000000000e+000
          7.910447761162e+001 0.000000000000e+000 0.000000000000e+000
          8.059701492505e+001 0.000000000000e+000 0.000000000000e+000
          8.208955223848e+001 0.000000000000e+000 0.000000000000e+000
          8.358208955191e+001 0.000000000000e+000 0.000000000000e+000
          8.507462686534e+001 0.000000000000e+000 0.000000000000e+000
          8.656716417877e+001 0.000000000000e+000 0.000000000000e+000
          8.805970149220e+001 0.000000000000e+000 0.000000000000e+000
          8.955223880563e+001 0.000000000000e+000 0.000000000000e+000
          9.104477611907e+001 0.000000000000e+000 0.000000000000e+000
          9.253731343250e+001 0.000000000000e+000 0.000000000000e+000
          9.402985074593e+001 0.000000000000e+000 0.000000000000e+000
          9.552238805936e+001 0.000000000000e+000 0.000000000000e+000
          9.701492537279e+001 0.000000000000e+000 0.000000000000e+000
          9.850746268622e+001 0.000000000000e+000 0.000000000000e+000
          9.999999999965e+001 0.000000000000e+000 0.000000000000e+000
          1.014925373131e+002 0.000000000000e+000 0.000000000000e+000
          1.029850746265e+002 0.000000000000e+000 0.000000000000e+000
          1.044776119399e+002 0.000000000000e+000 0.000000000000e+000
          1.059701492534e+002 0.000000000000e+000 0.000000000000e+000
          1.074626865668e+002 0.000000000000e+000 0.000000000000e+000
          1.089552238802e+002 0.000000000000e+000 0.000000000000e+000
          1.104477611937e+002 0.000000000000e+000 0.000000000000e+000
          1.119402985071e+002 0.000000000000e+000 0.000000000000e+000
          1.134328358205e+002 0.000000000000e+000 0.000000000000e+000
          1.149253731340e+002 0.000000000000e+000 0.000000000000e+000
          1.164179104474e+002 0.000000000000e+000 0.000000000000e+000
          1.179104477608e+002 0.000000000000e+000 0.000000000000e+000
          1.194029850742e+002 0.000000000000e+000 0.000000000000e+000
          1.208955223877e+002 0.000000000000e+000 0.000000000000e+000
          1.223880597011e+002 0.000000000000e+000 0.000000000000e+000
          1.238805970145e+002 0.000000000000e+000 0.000000000000e+000
          1.253731343280e+002 0.000000000000e+000 0.000000000000e+000
          1.268656716414e+002 0.000000000000e+000 0.000000000000e+000
          1.283582089548e+002 0.000000000000e+000 0.000000000000e+000
          1.298507462683e+002 0.000000000000e+000 0.000000000000e+000
          1.313432835817e+002 0.000000000000e+000 0.000000000000e+000
          1.328358208952e+002 0.000000000000e+000 0.000000000000e+000
          1.343283582086e+002 0.000000000000e+000 0.000000000000e+000
          1.358208955220e+002 0.000000000000e+000 0.000000000000e+000
          1.373134328355e+002 0.000000000000e+000 0.000000000000e+000
          1.388059701489e+002 0.000000000000e+000 0.000000000000e+000
          1.402985074624e+002 0.000000000000e+000 0.000000000000e+000
          1.417910447758e+002 0.000000000000e+000 0.000000000000e+000
          1.432835820892e+002 0.000000000000e+000 0.000000000000e+000
          1.447761194027e+002 0.000000000000e+000 0.000000000000e+000
          1.462686567161e+002 0.000000000000e+000 0.000000000000e+000
          1.477611940296e+002 0.000000000000e+000 0.000000000000e+000
          1.492537313430e+002 0.000000000000e+000 0.000000000000e+000
          1.507462686564e+002 0.000000000000e+000 0.000000000000e+000
          1.522388059699e+002 0.000000000000e+000 0.000000000000e+000
          1.537313432833e+002 0.000000000000e+000 0.000000000000e+000
          1.552238805968e+002 0.000000000000e+000 0.000000000000e+000
          1.567164179102e+002 0.000000000000e+000 0.000000000000e+000
          1.582089552237e+002 0.000000000000e+000 0.000000000000e+000
          1.597014925371e+002 0.000000000000e+000 0.000000000000e+000
          1.611940298505e+002 0.000000000000e+000 0.000000000000e+000
          1.626865671640e+002 0.000000000000e+000 0.000000000000e+000
          1.641791044774e+002 0.000000000000e+000 0.000000000000e+000
          1.656716417909e+002 0.000000000000e+000 0.000000000000e+000
          1.671641791043e+002 0.000000000000e+000 0.000000000000e+000
          1.686567164177e+002 0.000000000000e+000 0.000000000000e+000
          1.701492537312e+002 0.000000000000e+000 0.000000000000e+000
          1.716417910446e+002 0.000000000000e+000 0.000000000000e+000
          1.731343283581e+002 0.000000000000e+000 0.000000000000e+000
          1.746268656715e+002 0.000000000000e+000 0.000000000000e+000
          1.761194029849e+002 0.000000000000e+000 0.000000000000e+000
          1.776119402984e+002 0.000000000000e+000 0.000000000000e+000
          1.791044776118e+002 0.000000000000e+000 0.000000000000e+000
          1.805970149253e+002 0.000000000000e+000 0.000000000000e+000
          1.820895522387e+002 0.000000000000e+000 0.000000000000e+000
          1.835820895521e+002 0.000000000000e+000 0.000000000000e+000
          1.850746268656e+002 0.000000000000e+000 0.000000000000e+000
          1.865671641790e+002 0.000000000000e+000 0.000000000000e+000
          1.880597014925e+002 0.000000000000e+000 0.000000000000e+000
          1.895522388059e+002 0.000000000000e+000 0.000000000000e+000
          1.910447761194e+002 0.000000000000e+000 0.000000000000e+000
          1.925373134328e+002 0.000000000000e+000 0.000000000000e+000
          1.940298507462e+002 0.000000000000e+000 0.000000000000e+000
          1.955223880597e+002 0.000000000000e+000 0.000000000000e+000
          1.970149253731e+002 0.000000000000e+000 0.000000000000e+000
          1.985074626866e+002 0.000000000000e+000 0.000000000000e+000
          2.000000000000e+002 1.428571428570e+000 0.000000000000e+000
          2.000000000000e+002 2.857142857140e+000 0.000000000000e+000
[...]
      <PointData Scalars="MEAN_PRESSURE">
        <DataArray type="Float64" Name="MEAN_PRESSURE" format="ascii">
          2.000000000000e+002 1.999403417605e+002 1.999403409925e+002 2.000000000000e+002 1.991256092875e+002 1.976870367149e+002 1.969130855697e+002 1.965342613182e+002 1.963951559133e+002 1.963804307771e+002 1.964164352933e+002 1.964713722474e+002 1.965302870833e+002 1.965886461831e+002 1.966458404537e+002 1.967022543940e+002 1.967583451669e+002 1.968143573915e+002 1.968703997920e+002 1.969264818903e+002 1.969825794648e+002 1.970386283919e+002 1.970945980073e+002 1.971504455589e+002 1.972061316603e+002 1.972616152838e+002 1.973168725318e+002 1.973718694672e+002 1.974265697215e+002 1.974809492861e+002 1.975349800493e+002 1.975886464232e+002 1.976419117109e+002 1.976947597075e+002 1.977471672467e+002 1.977991079066e+002 1.978505718150e+002 1.979015254291e+002 1.979519599542e+002 1.980018631910e+002 1.980512009883e+002 1.980999489932e+002 1.981481180898e+002 1.981956765263e+002 1.982426197564e+002 1.982889289037e+002 1.983346042239e+002 1.983795971006e+002 1.984239484938e+002 1.984676064876e+002 1.985105710450e+002 1.985528420566e+002 1.985944253409e+002 1.986352591721e+002 1.986753934850e+002 1.987148060014e+002 1.987534999437e+002 1.987914448421e+002 1.988286492733e+002 1.988651501920e+002 1.989008723556e+002 1.989358573151e+002 1.989701008382e+002 1.990036169825e+002 1.990363859976e+002 1.990684156032e+002 1.990997104572e+002 1.991302658970e+002 1.991600986745e+002 1.991891959863e+002 1.992175863557e+002 1.992452456001e+002 1.992722028501e+002 1.992984517116e+002 1.993239990453e+002 1.993488622943e+002 1.993730334631e+002 1.993965410504e+002 1.994193749453e+002 1.994415524559e+002 1.994630701613e+002 1.994839577391e+002 1.995042069689e+002 1.995238401084e+002 1.995428571012e+002 1.995612714086e+002 1.995790972340e+002 1.995963413904e+002 1.996130147319e+002 1.996291292984e+002 1.996446956961e+002 1.996597258548e+002 1.996742308836e+002 1.996882180397e+002 1.997016961348e+002 1.997146874914e+002 1.997271912284e+002 1.997392244792e+002 1.997507987917e+002 1.997619264309e+002 1.997726136311e+002 1.997828690045e+002 1.997927124320e+002 1.998021441005e+002 1.998111794786e+002 1.998198292465e+002 1.998281045450e+002 1.998360113079e+002 1.998435573471e+002 1.998507597585e+002 1.998576190339e+002 1.998641481791e+002 1.998703570053e+002 1.998762555615e+002 1.998818467460e+002 1.998871377780e+002 1.998921431197e+002 1.998968625930e+002 1.999013065718e+002 1.999054824234e+002 1.999093981596e+002 1.999130571400e+002 1.999164630676e+002 1.999196235503e+002 1.999225433319e+002 1.999252254080e+002 1.999276790389e+002 1.999299080019e+002 1.999319099891e+002 1.999336965305e+002 1.999352688830e+002 1.999366159496e+002 1.999377546074e+002 1.999386842831e+002 1.999394172497e+002 1.999399114686e+002 1.999402292640e+002 1.999403307702e+002 1.999403205344e+002 1.999403427610e+002 1.999403383040e+002 1.999403361241e+002 1.999403321114e+002 1.999403294802e+002 1.999403313078e+002 1.999403315197e+002 1.999403265026e+002 1.999403403806e+002 1.999403192977e+002 1.999403299192e+002 1.999402285744e+002 1.999399109249e+002 1.999394167800e+002 1.999386838176e+002 1.999377542536e+002 1.999366162664e+002 1.999352698572e+002 1.999336976525e+002 1.999319110614e+002 1.999299090297e+002 1.999276793310e+002 1.999252258950e+002 1.999225432468e+002 1.999196228437e+002 1.999164625419e+002 1.999130560012e+002 1.999093966898e+002 1.999054858614e+002 1.999013094614e+002 1.998968633562e+002 1.998921429988e+002 1.998871388438e+002 1.998818443705e+002 1.998762553364e+002 1.998703594484e+002 1.998641514756e+002 1.998576190709e+002 1.998507587990e+002 1.998435554924e+002 1.998360102956e+002 1.998281030302e+002 1.998198300644e+002 1.998111809738e+002 1.998021415143e+002 1.997927107591e+002 1.997828673212e+002 1.997726132345e+002 1.997619252496e+002 1.997507999057e+002 1.997392257785e+002 1.997271875026e+002 1.997146852813e+002 1.997016945599e+002 1.996882181462e+002 1.996742303411e+002 1.996597224963e+002 1.996446969778e+002 1.996291301688e+002 1.996130151043e+002 1.995963413054e+002 1.995790989571e+002 1.995612776210e+002 1.995428622700e+002 1.995238397207e+002 1.995042132399e+002 1.994839579907e+002 1.994630716361e+002 1.994415463967e+002 1.994193776416e+002 1.993965407137e+002 1.993730411687e+002 1.993488656292e+002 1.993240017588e+002 1.992984475530e+002 1.992721984060e+002 1.992452487708e+002 1.992175839896e+002 1.991892020843e+002 1.991600960072e+002 1.991302660447e+002 1.990997049733e+002 1.990684124407e+002 1.990363872516e+002 1.990036185473e+002 1.989701086792e+002 1.989358547400e+002 1.989008614054e+002 1.988651256312e+002 1.988286511003e+002 1.987914439116e+002 1.987534964386e+002 1.987148150211e+002 1.986754007066e+002 1.986352642015e+002 1.985944065054e+002 1.985528392989e+002 1.985105684453e+002 1.984675865379e+002 1.984239361931e+002 1.983796038421e+002 1.983345950836e+002 1.982889374274e+002 1.982426167251e+002 1.981956651408e+002 1.981481018549e+002 1.980999259723e+002 1.980511582467e+002 1.980018176602e+002 1.979519147499e+002 1.979014638143e+002 1.978504940865e+002 1.977990107557e+002 1.977470390951e+002 1.976945989504e+002 1.976417113278e+002 1.975883915866e+002 1.975346587712e+002 1.974805419553e+002 1.974260518333e+002 1.973712139399e+002 1.973160492884e+002 1.972605795201e+002 1.972048198135e+002 1.971487875955e+002 1.970925018023e+002 1.970359771704e+002 1.969792250091e+002 1.969222500421e+002 1.968650556038e+002 1.968075952338e+002 1.967498143450e+002 1.966914902938e+002 1.966322624645e+002 1.965716037971e+002 1.965089730821e+002 1.964450770603e+002 1.963848400118e+002 1.963419170456e+002 1.963555794216e+002 1.964969072962e+002 1.968724840210e+002 1.976572383005e+002 1.990936967430e+002 2.000000000000e+002 2.000000000000e+002 2.000000000000e+002 2.000000000000e+002 2.000000000000e+002 2.000000000000e+002 2.000000000000e+002 2.000000000000e+002 2.000000000000e+002 2.000000000000e+002 2.000000000000e+002 2.000000000000e+002 2.000000000000e+002 1.999356798752e+002 1.963724499736e+002 1.999212043705e+002 1.998946252454e+002 1.998537960363e+002 1.997968810055e+002 1.997202060057e+002 1.970654195350e+002 1.996211292306e+002 1.974569616370e+002 1.978280697457e+002 1.981778712291e+002 1.986519933370e+002 1.989184339618e+002 1.991452537662e+002 1.993365006043e+002 1.994941445365e+002 1.967305277772e+002 1.984239458730e+002 1.995612637856e+002 1.995604380399e+002 1.994193762977e+002 1.992452467185e+002 1.990363886066e+002 1.987914487060e+002 1.999099716294e+002 1.998771243070e+002 1.998290425730e+002 1.987914343109e+002 1.990305525780e+002 1.992474485475e+002 1.994153179274e+002 1.997631945018e+002 1.996742205900e+002 1.972585981500e+002 1.976356055908e+002 1.980074265901e+002 1.996748912548e+002 1.997620272146e+002 1.998281789235e+002 1.998762476905e+002 1.999093917641e+002 1.980013098627e+002 1.976412098493e+002 1.972608079264e+002 1.999296858229e+002 1.999295523023e+002 1.983280939404e+002 1.985219444814e+002 1.965759914200e+002 1.968737974490e+002 1.999387148836e+002 1.965119655121e+002 1.999387405391e+002 1.964876905564e+002 1.965429589600e+002 1.969183232026e+002 1.982784487000e+002 1.985588230419e+002 1.999211161669e+002 1.994941500155e+002 1.998945330460e+002 1.993365175605e+002 1.991452731316e+002 1.989184513429e+002 1.986639289623e+002 1.996209743012e+002 1.998543441933e+002 1.997983094299e+002 1.997221043331e+002 1.974527185022e+002 1.978202959277e+002 1.996212849812e+002 1.997209882841e+002 1.997974708894e+002 1.998542251374e+002 1.989183715979e+002 1.991452028172e+002 1.993364540027e+002 1.998945329092e+002 1.994945098258e+002 1.999211122004e+002 1.981719679388e+002 1.978248175553e+002 1.974534006997e+002 1.970645932978e+002 1.999350892992e+002 1.999351870053e+002 1.963838569538e+002 1.970954372777e+002 1.986834875575e+002 1.981353582232e+002 1.999394873419e+002 1.969518129696e+002 1.967358507771e+002 1.963923577625e+002 1.967275307508e+002 1.983985996699e+002 1.983045697497e+002 1.985399922652e+002 1.965487527020e+002 1.968821102059e+002 1.984249362939e+002 1.999313023631e+002 1.998352490927e+002 1.998705666537e+002 1.997715831346e+002 1.999056201511e+002 1.996868458454e+002 1.994378415188e+002 1.990630544411e+002 1.988224233345e+002 1.992695670741e+002 1.973144056919e+002 1.979568041847e+002 1.975937318240e+002 1.995446445905e+002 1.984239391713e+002 1.999398157321e+002 1.975023857039e+002 1.999398157441e+002 1.974576822040e+002 1.994493471644e+002 1.992817020689e+002 1.990797353410e+002 1.988418397773e+002 1.996543609569e+002 1.995353180138e+002 1.995853487643e+002 1.997466738394e+002 1.980687556925e+002 1.998167503366e+002 1.977135176453e+002 1.998681487816e+002 1.973359785087e+002 1.999040019478e+002 1.999038447268e+002 1.999145520085e+002 1.998679128463e+002 1.998838825759e+002 1.998159519974e+002 1.998384615440e+002 1.997456038889e+002 1.997759418431e+002 1.973441011032e+002 1.996925037326e+002 1.996543178088e+002 1.977185790942e+002 1.975713856494e+002 1.988420596182e+002 1.990810267355e+002 1.992838175511e+002 1.989928131026e+002 1.992083248178e+002 1.994483824982e+002 1.993889754812e+002 1.979483418550e+002 1.995853930797e+002 1.995388928649e+002 1.999143087011e+002 1.971847883924e+002 1.998829562649e+002 1.975771113261e+002 1.998376241070e+002 1.979413202302e+002 1.997748015131e+002 1.987334085189e+002 1.989882819989e+002 1.992046065288e+002 1.993853843202e+002 1.996910902688e+002 1.967053278132e+002 1.999266752001e+002 1.999265660213e+002 1.985667836516e+002 1.982685730370e+002 1.969486444111e+002 1.995838530084e+002 1.992091503068e+002 1.993900517980e+002 1.989943540348e+002 1.987341860224e+002 1.971888920483e+002 1.977090882707e+002 1.999140930058e+002 1.980658046033e+002 1.998833177766e+002 1.998174905301e+002 1.996556528761e+002 1.997476657587e+002 1.972047930716e+002 1.999319830952e+002 1.999319826614e+002 1.984922331957e+002 1.965098611460e+002 1.999269064121e+002 1.995978692066e+002 1.996435416414e+002 1.997383203993e+002 1.981008092474e+002 1.998105023695e+002 1.977510698016e+002 1.989675728199e+002 1.991870451684e+002 1.993712556992e+002 1.999165256988e+002 1.971483012103e+002 1.998875310963e+002 1.968437175234e+002 1.987181083616e+002 1.999377069128e+002 1.999375796241e+002 1.999249101632e+002 1.987583757732e+002 1.980450925090e+002 1.985992412771e+002 1.982356951721e+002 1.963456797289e+002 1.969890639021e+002 1.964557794626e+002 1.966143999314e+002 1.969897335609e+002 1.994620644221e+002 1.992976310931e+002 1.990987232192e+002 1.988639813173e+002 1.998644811594e+002 1.973685939589e+002 1.999015405511e+002 1.995230577032e+002 1.997013487475e+002 1.998638982633e+002 1.997833055276e+002 1.999011409617e+002 1.998438741469e+002 1.994645921206e+002 1.992975635307e+002 1.991009880776e+002 1.988666233124e+002 1.973739825950e+002 1.979029665450e+002 1.975326398671e+002 1.975324989423e+002 1.998438671816e+002 1.978993552373e+002 1.997832849338e+002 1.997022425915e+002 1.995230289185e+002 1.999398681847e+002 1.999398986015e+002 1.976067285870e+002 1.974674659870e+002 1.999379393506e+002 1.963781883706e+002 1.999336820448e+002 1.999339728383e+002 1.963352118257e+002 1.999369150407e+002 1.964251767727e+002 1.964125798981e+002 1.982237544066e+002 1.986118070333e+002 1.970213276868e+002 1.964879472703e+002 1.981918008757e+002 1.968192998927e+002 1.968089824013e+002 1.986402544558e+002 1.966645883662e+002 1.983087158175e+002 1.984875541608e+002 1.966260468060e+002 1.977349949325e+002 1.996490808597e+002 1.997419665874e+002 1.998132310732e+002 1.998865589648e+002 1.999161225169e+002 1.995914704774e+002 1.987230380649e+002 1.989770257194e+002 1.991950668113e+002 1.993779034657e+002 1.983570297472e+002 1.968191305570e+002 1.984964879215e+002 1.983447760915e+002 1.999255578815e+002 1.999365266893e+002 1.971637963427e+002 1.980779299868e+002 1.963611392152e+002 1.964313864124e+002 1.999384888395e+002 1.966494412802e+002 1.994829723033e+002 1.993227933543e+002 1.991288250068e+002 1.988991772139e+002 1.996287339877e+002 1.996133997757e+002 1.995054424237e+002 1.997277516292e+002 1.998025647136e+002 1.981458436555e+002 1.998579230467e+002 1.977965692537e+002 1.998970691320e+002 1.974234942069e+002 1.999195473999e+002 1.998969100883e+002 1.998580319989e+002 1.998028480492e+002 1.997281259834e+002 1.974231134619e+002 1.977950518425e+002 1.989004736007e+002 1.991285883408e+002 1.993225964496e+002 1.999194751490e+002 1.970952251198e+002 1.986791745686e+002 1.999213339298e+002 1.999344778183e+002 1.999344792652e+002 1.971216376167e+002 1.969753248994e+002 1.964114801571e+002 1.984715624649e+002 1.999114557903e+002 1.998793908776e+002 1.998235533612e+002 1.997558012915e+002 1.996649566257e+002 1.972301358306e+002 1.976711785625e+002 1.980292748187e+002 1.994075128125e+002 1.990193379426e+002 1.987720048119e+002 1.992275416792e+002 1.995728034752e+002 1.999284686530e+002 1.999389640600e+002 1.999389646673e+002 1.998937249912e+002 1.997989768213e+002 1.997229896914e+002 1.978166282787e+002 1.989243852552e+002 1.991503305015e+002 1.993407290669e+002 1.965966132958e+002 1.983767755318e+002 1.996241372864e+002 1.996182078627e+002 1.986630147156e+002 1.999401043787e+002 1.982921451176e+002 1.981122900278e+002 1.987058767812e+002 1.996736903080e+002 1.997615116122e+002 1.998277959960e+002 1.999093934023e+002 1.998762627886e+002 1.980036510123e+002 1.976436826729e+002 1.972606082227e+002 1.992452433960e+002 1.994193742453e+002 1.987914355577e+002 1.990363817089e+002 1.999093907349e+002 1.998762505732e+002 1.990363653186e+002 1.992457010658e+002 1.998280941656e+002 1.994195638789e+002 1.997619149257e+002 1.996743512144e+002 1.976418950512e+002 1.995619380169e+002 1.995612620501e+002 1.967847669347e+002 1.982365533669e+002 1.967644262331e+002 1.987377540019e+002 1.984349766631e+002 1.999325151861e+002 1.999323343106e+002 1.985518183160e+002 1.985754892399e+002 1.984551267992e+002 1.996359149790e+002 1.994750164354e+002 1.995127594901e+002 1.996058844990e+002 1.993593769356e+002 1.991727447830e+002 1.989507272485e+002 1.997091358307e+002 1.975043044154e+002 1.978726285461e+002 1.998903387021e+002 1.998476890340e+002 1.997885101750e+002 1.998900166792e+002 1.975039592729e+002 1.998476918509e+002 1.978725609299e+002 1.989507340673e+002 1.991727509422e+002 1.993560015867e+002 1.997885125639e+002 1.997091374813e+002 1.967227516894e+002 1.964751394118e+002 1.999390879231e+002 1.966753012142e+002 1.994948908074e+002 1.994934081478e+002 1.974521289826e+002 1.974514886757e+002 1.998544735168e+002 1.998544165878e+002 1.999373513576e+002 1.966638117539e+002 1.963802838673e+002 1.970984433762e+002 1.967228474841e+002 1.999401236853e+002 1.984112494855e+002 1.999401359542e+002 1.982985581646e+002 1.965790906118e+002 1.999236300727e+002 1.999236814573e+002 1.997206388635e+002 1.997972070111e+002 1.978262861600e+002 1.993354224370e+002 1.989169090443e+002 1.991439534219e+002 1.998945799954e+002 1.969090502402e+002 1.969192823939e+002 1.964591030446e+002 1.986197525693e+002 1.982140814325e+002 1.964633724648e+002 1.970146126146e+002 1.972740680582e+002 1.982988284307e+002 1.969615660909e+002 1.999294092180e+002 1.999294095938e+002 1.982646736809e+002 1.985890085407e+002 1.999265674677e+002 1.981360607698e+002 1.985964384460e+002 1.985480045880e+002 1.998835209245e+002 1.971853943841e+002 1.999142752050e+002 1.989679107823e+002 1.991868131856e+002 1.993714927138e+002 1.995988820288e+002 1.977154327628e+002 1.998164387094e+002 1.980700685994e+002 1.997462565022e+002 1.996423823421e+002 1.999210336895e+002 1.968107926982e+002 1.984928777087e+002 1.983885149027e+002 1.981705812017e+002 1.965826187994e+002 1.999401551170e+002 1.985243084707e+002 1.999401558368e+002 1.986512145197e+002 1.963350810661e+002 1.970673408688e+002 1.984171574554e+002 1.983002643853e+002 1.999374557530e+002 1.979841140754e+002 1.988022916915e+002 1.969144280351e+002 1.986252977591e+002 1.966822065320e+002 1.996920720094e+002 1.997755499722e+002 1.998381761512e+002 1.979376359454e+002 1.975732126726e+002 1.998444137266e+002 1.999008509565e+002 1.997840417614e+002 1.998634893403e+002 1.997032499074e+002 1.975285730938e+002 1.978955342327e+002 1.973777251810e+002 1.988689265668e+002 1.993014814595e+002 1.991028969147e+002 1.994655622576e+002 1.999037395634e+002 1.998677603462e+002 1.973395311121e+002 1.995374968346e+002 1.988390460902e+002 1.990773344095e+002 1.992796859178e+002 1.994476893698e+002 1.995218383908e+002 1.995612676955e+002 1.994193495497e+002 1.990363595929e+002 1.992452402512e+002 1.987914219659e+002 1.999093955378e+002 1.998762517855e+002 1.998282116556e+002 1.996742251775e+002 1.997620725951e+002 1.972615186509e+002 1.976410546932e+002 1.980017820625e+002 1.982095884711e+002 1.969967929644e+002 1.999372702747e+002 1.963434579488e+002 1.995195374453e+002 1.994677440905e+002 1.993037447664e+002 1.991060383222e+002 1.988725252128e+002 1.998624870091e+002 1.999002027243e+002 1.973856476616e+002 1.998451640041e+002 1.997848685088e+002 1.997042152386e+002 1.975228523130e+002 1.978917271117e+002 1.984090158577e+002 1.999296874941e+002 1.983733263973e+002 1.999312406476e+002 1.995588468495e+002 1.995628302497e+002 1.994241973026e+002 1.992510168271e+002 1.990433404097e+002 1.987995196875e+002 1.999088894854e+002 1.998754852458e+002 1.998265998834e+002 1.997599013758e+002 1.996761046693e+002 1.976516549223e+002 1.996729957611e+002 1.990406737675e+002 1.992416054704e+002 1.994223509503e+002 1.997612046095e+002 1.998275676534e+002 1.980050229832e+002 1.998763202358e+002 1.976451661361e+002 1.999094396096e+002 1.972599578392e+002 1.967318992457e+002 1.998713838608e+002 1.973068518622e+002 1.999061667379e+002 1.990614153903e+002 1.994367120800e+002 1.992677492566e+002 1.988205161200e+002 1.976011388716e+002 1.998341487621e+002 1.979637890984e+002 1.997700943450e+002 1.996846490254e+002 1.995476287101e+002 1.963718998427e+002 1.999401399746e+002 1.984474904033e+002 1.999334268260e+002 1.999363189991e+002 1.999363175767e+002 1.983632917856e+002 1.984832414545e+002 1.968975542457e+002 1.972692510349e+002 1.999250453645e+002 1.963476168562e+002 1.999293966433e+002 1.999293358864e+002 1.970494556501e+002 1.996418242416e+002 1.997371946759e+002 1.981065736317e+002 1.998096586240e+002 1.977560509372e+002 1.993731928536e+002 1.991870647574e+002 1.989703333403e+002 1.995986032093e+002 1.999169943408e+002 1.971349122760e+002 1.998880178394e+002 1.981688467686e+002 1.986595418856e+002 1.983332466713e+002 1.965665050741e+002 1.964425984270e+002 1.999395810943e+002 1.971033424259e+002 1.999395808534e+002 1.970283290971e+002 1.988048318399e+002 1.979855090083e+002 1.987054059681e+002 1.966170054169e+002 1.999182432378e+002 1.966733540475e+002 1.982742436241e+002 1.985283235492e+002 1.983258081290e+002 1.968806476181e+002 1.965674969871e+002 1.967450356384e+002 1.980582989355e+002 1.965655337133e+002 1.968049832559e+002 1.983537501386e+002 1.963855832839e+002 1.965065464422e+002 1.984489713831e+002 1.982478678279e+002 1.985372708722e+002 1.982936701090e+002 1.999351805017e+002 1.963851578784e+002 1.971707546037e+002 1.995750085128e+002 1.996049558970e+002 1.999181530252e+002 1.998898885708e+002 1.999125810920e+002 1.998808652545e+002 1.998098826968e+002 1.997374921772e+002 1.977549070805e+002 1.996631619252e+002 1.996367944762e+002 1.987555235177e+002 1.987001054920e+002 1.990057701646e+002 1.989531792632e+002 1.991748288717e+002 1.992194402394e+002 1.993979579347e+002 1.993610376313e+002 1.964696169629e+002 1.999386720121e+002 1.999386574580e+002 1.999395180320e+002 1.999395183982e+002 1.967476675506e+002 1.999392862159e+002 1.994522578826e+002 1.992852496626e+002 1.990839591135e+002 1.988467581975e+002 1.995334940266e+002 1.995876886796e+002 1.996523709961e+002 1.997451393894e+002 1.980753178893e+002 1.998156051054e+002 1.977205578850e+002 1.998673297417e+002 1.973433416354e+002 1.999034531145e+002 1.999034454144e+002 1.998673178233e+002 1.999147896653e+002 1.998155512306e+002 1.997450672566e+0