<?xml version="1.0"?>
<VTKFile type="UnstructuredGrid" version="0.1" byte_order="LittleEndian">
  <UnstructuredGrid>
    <Piece NumberOfPoints="2604" NumberOfCells="4910">
      <Points>
        <DataArray type="Float64" NumberOfComponents="3" format="ascii">
          0.000000000000e+000 0.000000000000e+000 0.000000000000e+000
          2.000000000000e+002 0.000000000000e+000 0.000000000000e+000
          2.000000000000e+002 2.000000000000e+001 0.000000000000e+000
          0.000000000000e+000 2.000000000000e+001 0.000000000000e+000
          1.492537313427e+000 0.000000000000e+000 0.000000000000e+000
          2.985074626854e+000 0.000000000000e+000 0.000000000000e+000
          4.477611940281e+000 0.000000000000e+000 0.000000000000e+000
          5.970149253708e+000 0.000000000000e+000 0.000000000000e+000
          7.462686567135e+000 0.000000000000e+000 0.000000000000e+000
          8.955223880561e+000 0.000000000000e+000 0.000000000000e+000
          1.044776119399e+001 0.000000000000e+000 0.000000000000e+000
          1.194029850741e+001 0.000000000000e+000 0.000000000000e+000
          1.343283582084e+001 0.000000000000e+000 0.000000000000e+000
          1.492537313427e+001 0.000000000000e+000 0.000000000000e+000
          1.641791044770e+001 0.000000000000e+000 0.000000000000e+000
          1.791044776112e+001 0.000000000000e+000 0.000000000000e+000
          1.940298507455e+001 0.000000000000e+000 0.000000000000e+000
          2.089552238798e+001 0.000000000000e+000 0.000000000000e+000
          2.238805970141e+001 0.000000000000e+000 0.000000000000e+000
          2.388059701484e+001 0.000000000000e+000 0.000000000000e+000
          2.537313432826e+001 0.000000000000e+000 0.000000000000e+000
          2.686567164169e+001 0.000000000000e+000 0.000000000000e+000
          2.835820895511e+001 0.000000000000e+000 0.000000000000e+000
          2.985074626854e+001 0.000000000000e+000 0.000000000000e+000
          3.134328358196e+001 0.000000000000e+000 0.000000000000e+000
          3.283582089539e+001 0.000000000000e+000 0.000000000000e+000
          3.432835820881e+001 0.000000000000e+000 0.000000000000e+000
          3.582089552224e+001 0.000000000000e+000 0.000000000000e+000
          3.731343283566e+001 0.000000000000e+000 0.000000000000e+000
          3.880597014909e+001 0.000000000000e+000 0.000000000000e+000
          4.029850746251e+001 0.000000000000e+000 0.000000000000e+000
          4.179104477594e+001 0.000000000000e+000 0.000000000000e+000
          4.328358208936e+001 0.000000000000e+000 0.000000000000e+000
          4.477611940279e+001 0.000000000000e+000 0.000000000000e+000
          4.626865671621e+001 0.000000000000e+000 0.000000000000e+000
          4.776119402964e+001 0.000000000000e+000 0.000000000000e+000
          4.925373134306e+001 0.000000000000e+000 0.000000000000e+000
          5.074626865649e+001 0.000000000000e+000 0.000000000000e+000
          5.223880596991e+001 0.000000000000e+000 0.000000000000e+000
          5.373134328334e+001 0.000000000000e+000 0.000000000000e+000
          5.522388059676e+001 0.000000000000e+000 0.000000000000e+000
          5.671641791019e+001 0.000000000000e+000 0.000000000000e+000
          5.820895522361e+001 0.000000000000e+000 0.000000000000e+000
          5.970149253704e+001 0.000000000000e+000 0.000000000000e+000
          6.119402985046e+001 0.000000000000e+000 0.000000000000e+000
          6.268656716389e+001 0.000000000000e+000 0.000000000000e+000
          6.417910447732e+001 0.000000000000e+000 0.000000000000e+000
          6.567164179075e+001 0.000000000000e+000 0.000000000000e+000
          6.716417910418e+001 0.000000000000e+000 0.000000000000e+000
          6.865671641761e+001 0.000000000000e+000 0.000000000000e+000
          7.014925373104e+001 0.000000000000e+000 0.000000000000e+000
          7.164179104447e+001 0.000000000000e+000 0.000000000000e+000
          7.313432835790e+001 0.000000000000e+000 0.000000000000e+000
          7.462686567133e+001 0.000000000000e+000 0.000000000000e+000
          7.611940298476e+001 0.000000000000e+000 0.000000000000e+000
          7.761194029819e+001 0.000000000000e+000 0.000000000000e+000
          7.910447761162e+001 0.000000000000e+000 0.000000000000e+000
          8.059701492505e+001 0.000000000000e+000 0.000000000000e+000
          8.208955223848e+001 0.000000000000e+000 0.000000000000e+000
          8.358208955191e+001 0.000000000000e+000 0.000000000000e+000
          8.507462686534e+001 0.000000000000e+000 0.000000000000e+000
          8.656716417877e+001 0.000000000000e+000 0.000000000000e+000
          8.805970149220e+001 0.000000000000e+000 0.000000000000e+000
          8.955223880563e+001 0.000000000000e+000 0.000000000000e+000
          9.104477611907e+001 0.000000000000e+000 0.000000000000e+000
          9.253731343250e+001 0.000000000000e+000 0.000000000000e+000
          9.402985074593e+001 0.000000000000e+000 0.000000000000e+000
          9.552238805936e+001 0.000000000000e+000 0.000000000000e+000
          9.701492537279e+001 0.000000000000e+000 0.000000000000e+000
          9.850746268622e+001 0.000000000000e+000 0.000000000000e+000
          9.999999999965e+001 0.000000000000e+000 0.000000000000e+000
          1.014925373131e+002 0.000000000000e+000 0.000000000000e+000
          1.029850746265e+002 0.000000000000e+000 0.000000000000e+000
          1.044776119399e+002 0.000000000000e+000 0.000000000000e+000
          1.059701492534e+002 0.000000000000e+000 0.000000000000e+000
          1.074626865668e+002 0.000000000000e+000 0.000000000000e+000
          1.089552238802e+002 0.000000000000e+000 0.000000000000e+000
          1.104477611937e+002 0.000000000000e+000 0.000000000000e+000
          1.119402985071e+002 0.000000000000e+000 0.000000000000e+000
          1.134328358205e+002 0.000000000000e+000 0.000000000000e+000
          1.149253731340e+002 0.000000000000e+000 0.000000000000e+000
          1.164179104474e+002 0.000000000000e+000 0.000000000000e+000
          1.179104477608e+002 0.000000000000e+000 0.000000000000e+000
          1.194029850742e+002 0.000000000000e+000 0.000000000000e+000
          1.208955223877e+002 0.000000000000e+000 0.000000000000e+000
          1.223880597011e+002 0.000000000000e+000 0.000000000000e+000
          1.238805970145e+002 0.000000000000e+000 0.000000000000e+000
          1.253731343280e+002 0.000000000000e+000 0.000000000000e+000
          1.268656716414e+002 0.000000000000e+000 0.000000000000e+000
          1.283582089548e+002 0.000000000000e+000 0.000000000000e+000
          1.298507462683e+002 0.000000000000e+000 0.000000000000e+000
          1.313432835817e+002 0.000000000000e+000 0.000000000000e+000
          1.328358208952e+002 0.000000000000e+000 0.000000000000e+000
          1.343283582086e+002 0.000000000000e+000 0.000000000000e+000
          1.358208955220e+002 0.000000000000e+000 0.000000000000e+000
          1.373134328355e+002 0.000000000000e+000 0.000000000000e+000
          1.388059701489e+002 0.000000000000e+000 0.000000000000e+000
          1.402985074624e+002 0.000000000000e+000 0.000000000000e+000
          1.417910447758e+002 0.000000000000e+000 0.000000000000e+000
          1.432835820892e+002 0.000000000000e+000 0.000000000000e+000
          1.447761194027e+002 0.000000000000e+000 0.000000000000e+000
          1.462686567161e+002 0.000000000000e+000 0.000000000000e+000
          1.477611940296e+002 0.000000000000e+000 0.000000000000e+000
          1.492537313430e+002 0.000000000000e+000 0.000000000000e+000
          1.507462686564e+002 0.000000000000e+000 0.000000000000e+000
          1.522388059699e+002 0.000000000000e+000 0.000000000000e+000
          1.537313432833e+002 0.000000000000e+000 0.000000000000e+000
          1.552238805968e+002 0.000000000000e+000 0.000000000000e+000
          1.567164179102e+002 0.000000000000e+000 0.000000000000e+000
          1.582089552237e+002 0.000000000000e+000 0.000000000000e+000
          1.597014925371e+002 0.000000000000e+000 0.000000000000e+000
          1.611940298505e+002 0.000000000000e+000 0.000000000000e+000
          1.626865671640e+002 0.000000000000e+000 0.000000000000e+000
          1.641791044774e+002 0.000000000000e+000 0.000000000000e+000
          1.656716417909e+002 0.000000000000e+000 0.000000000000e+000
          1.671641791043e+002 0.000000000000e+000 0.000000000000e+000
          1.686567164177e+002 0.000000000000e+000 0.000000000000e+000
          1.701492537312e+002 0.000000000000e+000 0.000000000000e+000
          1.716417910446e+002 0.000000000000e+000 0.000000000000e+000
          1.731343283581e+002 0.000000000000e+000 0.000000000000e+000
          1.746268656715e+002 0.000000000000e+000 0.000000000000e+000
          1.761194029849e+002 0.000000000000e+000 0.000000000000e+000
          1.776119402984e+002 0.000000000000e+000 0.000000000000e+000
          1.791044776118e+002 0.000000000000e+000 0.000000000000e+000
          1.805970149253e+002 0.000000000000e+000 0.000000000000e+000
          1.820895522387e+002 0.000000000000e+000 0.000000000000e+000
          1.835820895521e+002 0.000000000000e+000 0.000000000000e+000
          1.850746268656e+002 0.000000000000e+000 0.000000000000e+000
          1.865671641790e+002 0.000000000000e+000 0.000000000000e+000
          1.880597014925e+002 0.000000000000e+000 0.000000000000e+000
          1.895522388059e+002 0.000000000000e+000 0.000000000000e+000
          1.910447761194e+002 0.000000000000e+000 0.000000000000e+000
          1.925373134328e+002 0.000000000000e+000 0.000000000000e+000
          1.940298507462e+002 0.000000000000e+000 0.000000000000e+000
          1.955223880597e+002 0.000000000000e+000 0.000000000000e+000
          1.970149253731e+002 0.000000000000e+000 0.000000000000e+000
          1.985074626866e+002 0.000000000000e+000 0.000000000000e+000
          2.000000000000e+002 1.428571428570e+000 0.000000000000e+000
          2.000000000000e+002 2.857142857140e+000 0.000000000000e+000
[...]
      <PointData Scalars="MEAN_PRESSURE">
        <DataArray type="Float64" Name="MEAN_PRESSURE" format="ascii">
          2.000000000000e+002 1.993972019654e+002 1.993972003883e+002 2.000000000000e+002 1.994371628507e+002 1.983440733197e+002 1.976313504616e+002 1.971590710973e+002 1.968686980200e+002 1.967093574038e+002 1.966319002518e+002 1.966090962303e+002 1.966176948024e+002 1.966435973103e+002 1.966777003416e+002 1.967152443598e+002 1.967536254778e+002 1.967917013958e+002 1.968291232650e+002 1.968658807153e+002 1.969021149997e+002 1.969379405309e+002 1.969735138939e+002 1.970089212486e+002 1.970442153435e+002 1.970794241225e+002 1.971145648916e+002 1.971496403371e+002 1.971846451956e+002 1.972195752286e+002 1.972544226662e+002 1.972891816220e+002 1.973238406592e+002 1.973583936718e+002 1.973928324162e+002 1.974271477609e+002 1.974613350244e+002 1.974953831148e+002 1.975292875400e+002 1.975630429095e+002 1.975966375971e+002 1.976300623127e+002 1.976633180848e+002 1.976963933531e+002 1.977292844609e+002 1.977619833529e+002 1.977944876905e+002 1.978267797526e+002 1.978588696873e+002 1.978907382793e+002 1.979223825394e+002 1.979537993431e+002 1.979849875908e+002 1.980159231393e+002 1.980466193935e+002 1.980770652932e+002 1.981072583563e+002 1.981371838435e+002 1.981668406967e+002 1.981962385842e+002 1.982253452049e+002 1.982541714743e+002 1.982827112293e+002 1.983109653363e+002 1.983389210512e+002 1.983665763982e+002 1.983939280857e+002 1.984209686539e+002 1.984476996854e+002 1.984741098971e+002 1.985002060144e+002 1.985259710443e+002 1.985514120902e+002 1.985765198151e+002 1.986012907103e+002 1.986257265361e+002 1.986498163965e+002 1.986735676813e+002 1.986969678675e+002 1.987200185917e+002 1.987427103349e+002 1.987650515547e+002 1.987870297648e+002 1.988086495978e+002 1.988299027562e+002 1.988507886236e+002 1.988713074115e+002 1.988914545901e+002 1.989112281850e+002 1.989306269519e+002 1.989496488633e+002 1.989682927343e+002 1.989865569459e+002 1.990044369500e+002 1.990219293491e+002 1.990390411748e+002 1.990557616599e+002 1.990720942997e+002 1.990880382698e+002 1.991035936000e+002 1.991187550515e+002 1.991335195317e+002 1.991478945438e+002 1.991618694269e+002 1.991754482400e+002 1.991886306533e+002 1.992014171694e+002 1.992138028665e+002 1.992257849916e+002 1.992373715308e+002 1.992485519343e+002 1.992593304313e+002 1.992697079344e+002 1.992796861486e+002 1.992892577626e+002 1.992984213651e+002 1.993071859175e+002 1.993155406496e+002 1.993234900200e+002 1.993310347303e+002 1.993381770746e+002 1.993449126576e+002 1.993512379073e+002 1.993571559588e+002 1.993626660218e+002 1.993677648306e+002 1.993724606546e+002 1.993767530381e+002 1.993806308745e+002 1.993841091469e+002 1.993871846408e+002 1.993898308802e+002 1.993920753131e+002 1.993939131869e+002 1.993953655030e+002 1.993963467156e+002 1.993969782476e+002 1.993971801104e+002 1.993971597597e+002 1.993972039561e+002 1.993971950882e+002 1.993971907427e+002 1.993971827673e+002 1.993971775340e+002 1.993971811628e+002 1.993971815816e+002 1.993971716007e+002 1.993971991843e+002 1.993971572548e+002 1.993971783693e+002 1.993969768271e+002 1.993963455877e+002 1.993953645268e+002 1.993939122237e+002 1.993920745700e+002 1.993898314333e+002 1.993871864497e+002 1.993841112130e+002 1.993806328102e+002 1.993767548414e+002 1.993724610943e+002 1.993677655948e+002 1.993626657851e+002 1.993571546489e+002 1.993512369358e+002 1.993449107038e+002 1.993381746342e+002 1.993310399863e+002 1.993234943375e+002 1.993155417477e+002 1.993071856562e+002 1.992984226743e+002 1.992892543333e+002 1.992796855865e+002 1.992697108974e+002 1.992593344276e+002 1.992485519127e+002 1.992373702946e+002 1.992257826682e+002 1.992138015084e+002 1.992014153200e+002 1.991886313824e+002 1.991754496147e+002 1.991618667083e+002 1.991478927823e+002 1.991335177971e+002 1.991187545785e+002 1.991035925132e+002 1.990880393084e+002 1.990720954607e+002 1.990557586639e+002 1.990390394568e+002 1.990219281696e+002 1.990044371233e+002 1.989865566671e+002 1.989682904133e+002 1.989496498832e+002 1.989306276682e+002 1.989112285279e+002 1.988914545916e+002 1.988713085259e+002 1.988507924958e+002 1.988299059132e+002 1.988086493866e+002 1.987870334712e+002 1.987650517605e+002 1.987427111469e+002 1.987200152355e+002 1.986969691969e+002 1.986735673739e+002 1.986498202089e+002 1.986257280859e+002 1.986012919163e+002 1.985765176624e+002 1.985514098428e+002 1.985259723621e+002 1.985002047640e+002 1.984741124470e+002 1.984476983609e+002 1.984209685671e+002 1.983939256149e+002 1.983665749370e+002 1.983389214137e+002 1.983109658072e+002 1.982827141915e+002 1.982541703617e+002 1.982253409210e+002 1.981962292510e+002 1.981668411994e+002 1.981371832876e+002 1.981072568267e+002 1.980770680978e+002 1.980466214315e+002 1.980159242538e+002 1.979849804729e+002 1.979537974587e+002 1.979223804592e+002 1.978907302097e+002 1.978588636440e+002 1.978267791924e+002 1.977944813867e+002 1.977619815311e+002 1.977292778828e+002 1.976963827148e+002 1.976633040709e+002 1.976300438565e+002 1.975966102973e+002 1.975630108851e+002 1.975292505050e+002 1.974953350507e+002 1.974612743660e+002 1.974270713533e+002 1.973927344139e+002 1.973582701648e+002 1.973236852971e+002 1.972889846179e+002 1.972541739603e+002 1.972192607474e+002 1.971842466044e+002 1.971491359413e+002 1.971139289020e+002 1.970786213054e+002 1.970431988187e+002 1.970076359548e+002 1.969718867472e+002 1.969358754528e+002 1.968994906087e+002 1.968625710686e+002 1.968249545845e+002 1.967864350225e+002 1.967470187491e+002 1.967069813240e+002 1.966674140629e+002 1.966307149899e+002 1.966022358182e+002 1.965908817442e+002 1.966114416003e+002 1.966835580787e+002 1.968448950573e+002 1.971377144617e+002 1.976079089301e+002 1.983285665235e+002 1.994181487176e+002 2.000000000000e+002 2.000000000000e+002 2.000000000000e+002 2.000000000000e+002 2.000000000000e+002 2.000000000000e+002 2.000000000000e+002 2.000000000000e+002 2.000000000000e+002 2.000000000000e+002 2.000000000000e+002 2.000000000000e+002 2.000000000000e+002 1.993879912328e+002 1.966377875817e+002 1.993601357391e+002 1.993115719885e+002 1.992423050409e+002 1.991540496140e+002 1.990463949638e+002 1.969548142448e+002 1.989209664879e+002 1.972041221328e+002 1.974463612031e+002 1.976839870365e+002 1.980286832768e+002 1.982397848434e+002 1.984343650019e+002 1.986135431880e+002 1.987760764239e+002 1.967341669619e+002 1.978588680749e+002 1.988507837820e+002 1.988498329502e+002 1.986969684933e+002 1.985259715282e+002 1.983389220814e+002 1.981371851400e+002 1.993392272383e+002 1.992811634874e+002 1.992028828384e+002 1.981371799924e+002 1.983339280738e+002 1.985280367158e+002 1.986927935752e+002 1.991053870317e+002 1.989865495178e+002 1.970774697307e+002 1.973197271340e+002 1.975668261955e+002 1.989873948958e+002 1.991037406137e+002 1.992015364177e+002 1.992796756637e+002 1.993381668294e+002 1.975626721200e+002 1.973233672205e+002 1.970788003479e+002 1.993763242588e+002 1.993760666176e+002 1.977898468012e+002 1.979308088558e+002 1.966339770244e+002 1.968308674087e+002 1.993939736924e+002 1.971499087013e+002 1.993940245910e+002 1.971470451660e+002 1.966205793202e+002 1.968604459433e+002 1.977545481109e+002 1.979582626878e+002 1.993599669316e+002 1.987760795136e+002 1.993114070002e+002 1.986135515246e+002 1.984343733557e+002 1.982397914366e+002 1.980378182586e+002 1.989207792442e+002 1.992432015408e+002 1.991561674258e+002 1.990489327551e+002 1.972014210027e+002 1.974411998703e+002 1.989211543146e+002 1.990474414505e+002 1.991549241083e+002 1.992430047641e+002 1.982397393848e+002 1.984343236082e+002 1.986135031324e+002 1.993114070488e+002 1.987764755622e+002 1.993599601465e+002 1.976798697430e+002 1.974441971531e+002 1.972018147348e+002 1.969541725675e+002 1.993868329048e+002 1.993870243301e+002 1.966079486756e+002 1.969740097672e+002 1.980528489588e+002 1.976544830419e+002 1.993955046954e+002 1.976866086744e+002 1.967380955494e+002 1.966491539754e+002 1.967317547443e+002 1.978404988731e+002 1.977730835672e+002 1.979442242221e+002 1.966213558830e+002 1.968365220181e+002 1.978595894940e+002 1.993794513868e+002 1.992126042866e+002 1.992700662504e+002 1.991172864930e+002 1.993312879246e+002 1.990026865269e+002 1.987161511281e+002 1.983619347028e+002 1.981618632087e+002 1.985489266917e+002 1.971129426304e+002 1.975325628277e+002 1.972924707347e+002 1.988319353896e+002 1.978588653608e+002 1.993961565487e+002 1.981884982202e+002 1.993961565221e+002 1.981589093758e+002 1.987282119441e+002 1.985604717768e+002 1.983764423364e+002 1.981774391854e+002 1.989616152747e+002 1.988214406943e+002 1.988785868982e+002 1.990823355298e+002 1.976086554426e+002 1.991839222806e+002 1.973706894765e+002 1.992660067209e+002 1.971266466646e+002 1.993283537486e+002 1.993280665808e+002 1.993476838636e+002 1.992656064405e+002 1.992927755336e+002 1.991826990569e+002 1.992176831893e+002 1.990808532941e+002 1.991235320491e+002 1.971319117241e+002 1.990099784672e+002 1.989615628004e+002 1.973740238873e+002 1.972779895180e+002 1.981775930573e+002 1.983775581917e+002 1.985624882234e+002 1.983018323010e+002 1.984916648623e+002 1.987271956160e+002 1.986658980080e+002 1.975268484248e+002 1.988786403096e+002 1.988254501245e+002 1.993472312444e+002 1.970304980256e+002 1.992911731660e+002 1.972816691089e+002 1.992163535485e+002 1.975221155234e+002 1.991218913383e+002 1.980915411221e+002 1.982979930171e+002 1.984882303036e+002 1.986622499113e+002 1.990081478254e+002 1.967166711646e+002 1.993705363931e+002 1.993703275137e+002 1.979642270800e+002 1.977475773534e+002 1.968797612817e+002 1.988768431088e+002 1.984924295463e+002 1.986669933955e+002 1.983031387183e+002 1.980921546745e+002 1.970332000354e+002 1.973677877669e+002 1.993468322899e+002 1.976066298159e+002 1.992917976686e+002 1.991850517074e+002 1.989632208039e+002 1.990837030083e+002 1.970433557002e+002 1.993807726845e+002 1.993807719395e+002 1.979088482546e+002 1.966025488279e+002 1.993709791284e+002 1.988932556353e+002 1.989482347874e+002 1.990708589887e+002 1.976306508515e+002 1.991744239886e+002 1.973953953115e+002 1.982805924373e+002 1.984721482637e+002 1.986480319996e+002 1.993513542716e+002 1.970073961575e+002 1.992991062518e+002 1.968113587877e+002 1.980796360856e+002 1.993919809458e+002 1.993917298930e+002 1.993671629617e+002 1.981110935559e+002 1.975924706023e+002 1.979886359915e+002 1.977244184775e+002 1.968361225561e+002 1.969059499591e+002 1.965918698484e+002 1.966577872244e+002 1.969066624865e+002 1.987416439105e+002 1.985757303322e+002 1.983930641630e+002 1.981953034737e+002 1.992598813330e+002 1.971474860514e+002 1.993239093633e+002 1.988077683168e+002 1.990214611739e+002 1.992589087643e+002 1.991341443452e+002 1.993231882078e+002 1.992262875417e+002 1.987443287388e+002 1.985756612329e+002 1.983950593269e+002 1.981974487130e+002 1.971509612512e+002 1.974963364541e+002 1.972528939743e+002 1.972527890228e+002 1.992262794620e+002 1.974939255687e+002 1.991341248476e+002 1.990226478085e+002 1.988077509366e+002 1.993962606559e+002 1.993963210942e+002 1.982820238459e+002 1.981730843468e+002 1.993924402642e+002 1.968889134053e+002 1.993840805697e+002 1.993846487899e+002 1.967107757795e+002 1.993904197491e+002 1.966080197896e+002 1.969274096551e+002 1.977160283395e+002 1.979981094619e+002 1.969267874001e+002 1.966084203651e+002 1.976936865989e+002 1.967943776431e+002 1.967879296075e+002 1.980197230948e+002 1.966894523258e+002 1.977760282097e+002 1.979053982541e+002 1.966633710483e+002 1.973848111393e+002 1.989550499807e+002 1.990758454860e+002 1.991785555887e+002 1.992974110365e+002 1.993506018058e+002 1.988857238081e+002 1.980834628874e+002 1.982885207084e+002 1.984794787805e+002 1.986547084746e+002 1.978105560137e+002 1.967944675186e+002 1.979119796601e+002 1.978017586690e+002 1.993683985795e+002 1.993896554221e+002 1.970173254682e+002 1.976149414694e+002 1.967552135763e+002 1.970419055915e+002 1.993935264021e+002 1.966790596437e+002 1.987639996942e+002 1.986001242386e+002 1.984196959842e+002 1.982239714232e+002 1.989301537446e+002 1.989116945225e+002 1.987883892221e+002 1.990565249742e+002 1.991625035657e+002 1.976617436813e+002 1.992490551214e+002 1.974254605561e+002 1.993159109616e+002 1.971826128572e+002 1.993570134941e+002 1.993156262680e+002 1.992492324820e+002 1.991629277612e+002 1.990570327144e+002 1.971824303253e+002 1.974244678419e+002 1.982250293957e+002 1.984194838492e+002 1.985999305395e+002 1.993568779781e+002 1.969736274175e+002 1.980495288851e+002 1.993603788139e+002 1.993856361874e+002 1.993856388992e+002 1.969906529361e+002 1.968972184835e+002 1.965951280315e+002 1.978936489987e+002 1.993419582586e+002 1.992850412920e+002 1.991943656320e+002 1.990950057195e+002 1.989748496890e+002 1.970593402656e+002 1.973429444370e+002 1.975816845419e+002 1.986847720914e+002 1.983243371580e+002 1.981218164125e+002 1.985094378469e+002 1.988640287837e+002 1.993739779189e+002 1.993944671832e+002 1.993944684211e+002 1.993099767439e+002 1.991571570417e+002 1.990501174173e+002 1.974387626115e+002 1.982446877488e+002 1.984389124417e+002 1.986176988813e+002 1.972914571483e+002 1.978247499670e+002 1.989245855077e+002 1.989174492045e+002 1.980371144976e+002 1.993967299880e+002 1.988166325841e+002 1.976385570812e+002 1.980701341349e+002 1.989858768716e+002 1.991030141824e+002 1.992009406884e+002 1.993381694592e+002 1.992797008086e+002 1.975642601944e+002 1.973249756004e+002 1.970786452780e+002 1.985259699279e+002 1.986969673910e+002 1.981371802918e+002 1.983389192035e+002 1.993381652024e+002 1.992796793367e+002 1.983389126856e+002 1.985264087128e+002 1.992014056066e+002 1.986971746362e+002 1.991035832094e+002 1.989867171658e+002 1.973238329915e+002 1.988515539346e+002 1.988507827803e+002 1.967710618814e+002 1.977250235476e+002 1.967577456919e+002 1.980949498085e+002 1.978668979104e+002 1.993818075114e+002 1.993814557909e+002 1.979530412665e+002 1.979707614948e+002 1.978816022897e+002 1.989388844674e+002 1.987554496316e+002 1.987964081619e+002 1.989027368419e+002 1.986361663641e+002 1.984591381408e+002 1.982665257927e+002 1.990316990902e+002 1.972346202114e+002 1.974760488151e+002 1.993040178663e+002 1.992324145147e+002 1.991417339976e+002 1.993034509234e+002 1.972343524440e+002 1.992324179636e+002 1.974759966886e+002 1.982665283168e+002 1.984591406820e+002 1.986328135792e+002 1.991417363974e+002 1.990317003321e+002 1.974179737326e+002 1.965941562472e+002 1.993947127638e+002 1.973730604630e+002 1.987768834353e+002 1.987752751996e+002 1.972010303248e+002 1.972005975827e+002 1.992434104813e+002 1.992433167882e+002 1.993912796854e+002 1.966883391076e+002 1.967023052026e+002 1.969758495683e+002 1.967284892344e+002 1.993967683759e+002 1.989159716366e+002 1.993967927257e+002 1.988391312909e+002 1.966371462483e+002 1.993647279950e+002 1.993648257452e+002 1.990469726332e+002 1.991545320692e+002 1.974451736960e+002 1.986124770330e+002 1.982385236023e+002 1.984331955225e+002 1.993114909324e+002 1.968541197398e+002 1.968611780951e+002 1.965991343156e+002 1.980041421132e+002 1.977092593764e+002 1.966061389367e+002 1.969222240199e+002 1.970873305036e+002 1.977690093061e+002 1.968881855572e+002 1.993757896698e+002 1.993757902730e+002 1.977448222841e+002 1.979809210768e+002 1.993703293570e+002 1.976549698872e+002 1.979865235612e+002 1.979501952531e+002 1.992921500932e+002 1.970309041097e+002 1.993471701710e+002 1.982808776999e+002 1.984719354323e+002 1.986482718379e+002 1.988944515893e+002 1.973719492446e+002 1.991834467576e+002 1.976095528527e+002 1.990817599427e+002 1.989468062994e+002 1.993598132063e+002 1.967889805475e+002 1.979093215144e+002 1.978332133928e+002 1.976789117441e+002 1.966378473137e+002 1.993968308104e+002 1.989937513711e+002 1.993968322894e+002 1.990793843159e+002 1.967663645569e+002 1.969559825051e+002 1.978539451490e+002 1.977700243114e+002 1.993914856604e+002 1.975510130648e+002 1.981458026064e+002 1.968578500018e+002 1.980083572927e+002 1.967016288178e+002 1.990094242405e+002 1.991229696038e+002 1.992172299648e+002 1.975196394610e+002 1.972791471717e+002 1.992271588661e+002 1.993226716127e+002 1.991352253213e+002 1.992582368346e+002 1.990239636211e+002 1.972502797289e+002 1.974913706510e+002 1.971533708145e+002 1.981993109155e+002 1.985794473294e+002 1.983967339209e+002 1.987453594986e+002 1.993278791178e+002 1.992653563683e+002 1.971289228611e+002 1.988238924593e+002 1.981751989860e+002 1.983743554274e+002 1.985585545930e+002 1.987264759013e+002 1.988064334472e+002 1.988507862525e+002 1.986969542693e+002 1.983389103266e+002 1.985259686205e+002 1.981371754719e+002 1.993381726800e+002 1.992796808644e+002 1.992015886805e+002 1.989865528882e+002 1.991038056963e+002 1.970793073923e+002 1.973232764106e+002 1.975629873307e+002 1.977061252401e+002 1.969111367537e+002 1.993911199275e+002 1.967634443157e+002 1.988038897489e+002 1.987476834665e+002 1.985816329453e+002 1.983995076364e+002 1.982022352194e+002 1.992565781356e+002 1.993215095239e+002 1.971584020163e+002 1.992283654739e+002 1.991364299039e+002 1.990252358254e+002 1.972465765068e+002 1.974888226680e+002 1.978480437473e+002 1.993763273887e+002 1.978222716182e+002 1.993793324565e+002 1.988480275449e+002 1.988525713173e+002 1.987019629747e+002 1.985313999948e+002 1.983449080635e+002 1.981436023788e+002 1.993372463144e+002 1.992783778701e+002 1.991990822168e+002 1.991007492944e+002 1.989889440237e+002 1.973301983603e+002 1.989849937309e+002 1.983426081094e+002 1.985225642080e+002 1.987000458377e+002 1.991025843191e+002 1.992005873749e+002 1.975651941730e+002 1.992798002469e+002 1.973259472000e+002 1.993382550138e+002 1.970782444706e+002 1.967352564061e+002 1.992714385895e+002 1.971081097836e+002 1.993322793330e+002 1.983605150548e+002 1.987149711200e+002 1.985471894968e+002 1.981603395210e+002 1.972972851881e+002 1.992108792128e+002 1.975372768223e+002 1.991151731048e+002 1.989998601247e+002 1.988352959916e+002 1.966571401562e+002 1.993968007301e+002 1.989326231267e+002 1.993835830931e+002 1.993892469682e+002 1.993892442646e+002 1.978150548030e+002 1.979022303545e+002 1.968464145835e+002 1.970842588128e+002 1.993674220081e+002 1.966606692124e+002 1.993757661633e+002 1.993756489014e+002 1.969448141584e+002 1.989461201867e+002 1.990693206574e+002 1.976346164630e+002 1.991731479250e+002 1.973986797318e+002 1.986499854866e+002 1.984721738008e+002 1.982829152472e+002 1.988941268331e+002 1.993522296459e+002 1.969989415048e+002 1.992999551786e+002 1.976776926670e+002 1.980344454490e+002 1.977935165127e+002 1.966322203307e+002 1.966134854327e+002 1.993956907130e+002 1.978367632973e+002 1.993956902728e+002 1.977793808464e+002 1.981478150300e+002 1.975519584437e+002 1.980697667874e+002 1.966594535263e+002 1.993545661451e+002 1.973634565643e+002 1.977515885853e+002 1.979355437748e+002 1.977882096008e+002 1.968353110298e+002 1.966289381606e+002 1.967440279160e+002 1.976014948774e+002 1.966277267112e+002 1.967852727603e+002 1.978082075068e+002 1.966102519006e+002 1.966078231273e+002 1.978771086886e+002 1.977329837503e+002 1.979421890770e+002 1.977653393332e+002 1.993870117044e+002 1.968729571315e+002 1.970217627301e+002 1.988665678427e+002 1.989016319360e+002 1.993543963129e+002 1.993032257931e+002 1.993440315171e+002 1.992875672638e+002 1.991734782427e+002 1.990697159020e+002 1.973979236593e+002 1.989725893109e+002 1.989399560416e+002 1.981088565774e+002 1.980656744445e+002 1.983128020951e+002 1.982685661563e+002 1.984610265637e+002 1.985019339710e+002 1.986750202435e+002 1.986378177744e+002 1.971159716449e+002 1.993938887598e+002 1.993938601364e+002 1.993955655040e+002 1.993955662764e+002 1.974785101390e+002 1.993951057052e+002 1.987312687364e+002 1.985638517363e+002 1.983801213818e+002 1.981813900914e+002 1.988194001863e+002 1.988813062902e+002 1.989591335011e+002 1.990802126506e+002 1.976131444354e+002 1.991821699077e+002 1.973753085071e+002 1.992646323545e+002 1.971313352662e+002 1.993273590584e+002 1.993273444849e+002 1.992646111432e+002 1.993481236806e+002 1.991820881702e+002 1.990801141128e+0