<?xml version="1.0"?>
<VTKFile type="UnstructuredGrid" version="0.1" byte_order="LittleEndian">
  <UnstructuredGrid>
    <Piece NumberOfPoints="2604" NumberOfCells="4910">
      <Points>
        <DataArray type="Float64" NumberOfComponents="3" format="ascii">
          0.000000000000e+000 0.000000000000e+000 0.000000000000e+000
          2.000000000000e+002 0.000000000000e+000 0.000000000000e+000
          2.000000000000e+002 2.000000000000e+001 0.000000000000e+000
          0.000000000000e+000 2.000000000000e+001 0.000000000000e+000
          1.492537313427e+000 0.000000000000e+000 0.000000000000e+000
          2.985074626854e+000 0.000000000000e+000 0.000000000000e+000
          4.477611940281e+000 0.000000000000e+000 0.000000000000e+000
          5.970149253708e+000 0.000000000000e+000 0.000000000000e+000
          7.462686567135e+000 0.000000000000e+000 0.000000000000e+000
          8.955223880561e+000 0.000000000000e+000 0.000000000000e+000
          1.044776119399e+001 0.000000000000e+000 0.000000000000e+000
          1.194029850741e+001 0.000000000000e+000 0.000000000000e+000
          1.343283582084e+001 0.000000000000e+000 0.000000000000e+000
          1.492537313427e+001 0.000000000000e+000 0.000000000000e+000
          1.641791044770e+001 0.000000000000e+000 0.000000000000e+000
          1.791044776112e+001 0.000000000000e+000 0.000000000000e+000
          1.940298507455e+001 0.000000000000e+000 0.000000000000e+000
          2.089552238798e+001 0.000000000000e+000 0.000000000000e+000
          2.238805970141e+001 0.000000000000e+000 0.000000000000e+000
          2.388059701484e+001 0.000000000000e+000 0.000000000000e+000
          2.537313432826e+001 0.000000000000e+000 0.000000000000e+000
          2.686567164169e+001 0.000000000000e+000 0.000000000000e+000
          2.835820895511e+001 0.000000000000e+000 0.000000000000e+000
          2.985074626854e+001 0.000000000000e+000 0.000000000000e+000
          3.134328358196e+001 0.000000000000e+000 0.000000000000e+000
          3.283582089539e+001 0.000000000000e+000 0.000000000000e+000
          3.432835820881e+001 0.000000000000e+000 0.000000000000e+000
          3.582089552224e+001 0.000000000000e+000 0.000000000000e+000
          3.731343283566e+001 0.000000000000e+000 0.000000000000e+000
          3.880597014909e+001 0.000000000000e+000 0.000000000000e+000
          4.029850746251e+001 0.000000000000e+000 0.000000000000e+000
          4.179104477594e+001 0.000000000000e+000 0.000000000000e+000
          4.328358208936e+001 0.000000000000e+000 0.000000000000e+000
          4.477611940279e+001 0.000000000000e+000 0.000000000000e+000
          4.626865671621e+001 0.000000000000e+000 0.000000000000e+000
          4.776119402964e+001 0.000000000000e+000 0.000000000000e+000
          4.925373134306e+001 0.000000000000e+000 0.000000000000e+000
          5.074626865649e+001 0.000000000000e+000 0.000000000000e+000
          5.223880596991e+001 0.000000000000e+000 0.000000000000e+000
          5.373134328334e+001 0.000000000000e+000 0.000000000000e+000
          5.522388059676e+001 0.000000000000e+000 0.000000000000e+000
          5.671641791019e+001 0.000000000000e+000 0.000000000000e+000
          5.820895522361e+001 0.000000000000e+000 0.000000000000e+000
          5.970149253704e+001 0.000000000000e+000 0.000000000000e+000
          6.119402985046e+001 0.000000000000e+000 0.000000000000e+000
          6.268656716389e+001 0.000000000000e+000 0.000000000000e+000
          6.417910447732e+001 0.000000000000e+000 0.000000000000e+000
          6.567164179075e+001 0.000000000000e+000 0.000000000000e+000
          6.716417910418e+001 0.000000000000e+000 0.000000000000e+000
          6.865671641761e+001 0.000000000000e+000 0.000000000000e+000
          7.014925373104e+001 0.000000000000e+000 0.000000000000e+000
          7.164179104447e+001 0.000000000000e+000 0.000000000000e+000
          7.313432835790e+001 0.000000000000e+000 0.000000000000e+000
          7.462686567133e+001 0.000000000000e+000 0.000000000000e+000
          7.611940298476e+001 0.000000000000e+000 0.000000000000e+000
          7.761194029819e+001 0.000000000000e+000 0.000000000000e+000
          7.910447761162e+001 0.000000000000e+000 0.000000000000e+000
          8.059701492505e+001 0.000000000000e+000 0.000000000000e+000
          8.208955223848e+001 0.000000000000e+000 0.000000000000e+000
          8.358208955191e+001 0.000000000000e+000 0.000000000000e+000
          8.507462686534e+001 0.000000000000e+000 0.000000000000e+000
          8.656716417877e+001 0.000000000000e+000 0.000000000000e+000
          8.805970149220e+001 0.000000000000e+000 0.000000000000e+000
          8.955223880563e+001 0.000000000000e+000 0.000000000000e+000
          9.104477611907e+001 0.000000000000e+000 0.000000000000e+000
          9.253731343250e+001 0.000000000000e+000 0.000000000000e+000
          9.402985074593e+001 0.000000000000e+000 0.000000000000e+000
          9.552238805936e+001 0.000000000000e+000 0.000000000000e+000
          9.701492537279e+001 0.000000000000e+000 0.000000000000e+000
          9.850746268622e+001 0.000000000000e+000 0.000000000000e+000
          9.999999999965e+001 0.000000000000e+000 0.000000000000e+000
          1.014925373131e+002 0.000000000000e+000 0.000000000000e+000
          1.029850746265e+002 0.000000000000e+000 0.000000000000e+000
          1.044776119399e+002 0.000000000000e+000 0.000000000000e+000
          1.059701492534e+002 0.000000000000e+000 0.000000000000e+000
          1.074626865668e+002 0.000000000000e+000 0.000000000000e+000
          1.089552238802e+002 0.000000000000e+000 0.000000000000e+000
          1.104477611937e+002 0.000000000000e+000 0.000000000000e+000
          1.119402985071e+002 0.000000000000e+000 0.000000000000e+000
          1.134328358205e+002 0.000000000000e+000 0.000000000000e+000
          1.149253731340e+002 0.000000000000e+000 0.000000000000e+000
          1.164179104474e+002 0.000000000000e+000 0.000000000000e+000
          1.179104477608e+002 0.000000000000e+000 0.000000000000e+000
          1.194029850742e+002 0.000000000000e+000 0.000000000000e+000
          1.208955223877e+002 0.000000000000e+000 0.000000000000e+000
          1.223880597011e+002 0.000000000000e+000 0.000000000000e+000
          1.238805970145e+002 0.000000000000e+000 0.000000000000e+000
          1.253731343280e+002 0.000000000000e+000 0.000000000000e+000
          1.268656716414e+002 0.000000000000e+000 0.000000000000e+000
          1.283582089548e+002 0.000000000000e+000 0.000000000000e+000
          1.298507462683e+002 0.000000000000e+000 0.000000000000e+000
          1.313432835817e+002 0.000000000000e+000 0.000000000000e+000
          1.328358208952e+002 0.000000000000e+000 0.000000000000e+000
          1.343283582086e+002 0.000000000000e+000 0.000000000000e+000
          1.358208955220e+002 0.000000000000e+000 0.000000000000e+000
          1.373134328355e+002 0.000000000000e+000 0.000000000000e+000
          1.388059701489e+002 0.000000000000e+000 0.000000000000e+000
          1.402985074624e+002 0.000000000000e+000 0.000000000000e+000
          1.417910447758e+002 0.000000000000e+000 0.000000000000e+000
          1.432835820892e+002 0.000000000000e+000 0.000000000000e+000
          1.447761194027e+002 0.000000000000e+000 0.000000000000e+000
          1.462686567161e+002 0.000000000000e+000 0.000000000000e+000
          1.477611940296e+002 0.000000000000e+000 0.000000000000e+000
          1.492537313430e+002 0.000000000000e+000 0.000000000000e+000
          1.507462686564e+002 0.000000000000e+000 0.000000000000e+000
          1.522388059699e+002 0.000000000000e+000 0.000000000000e+000
          1.537313432833e+002 0.000000000000e+000 0.000000000000e+000
          1.552238805968e+002 0.000000000000e+000 0.000000000000e+000
          1.567164179102e+002 0.000000000000e+000 0.000000000000e+000
          1.582089552237e+002 0.000000000000e+000 0.000000000000e+000
          1.597014925371e+002 0.000000000000e+000 0.000000000000e+000
          1.611940298505e+002 0.000000000000e+000 0.000000000000e+000
          1.626865671640e+002 0.000000000000e+000 0.000000000000e+000
          1.641791044774e+002 0.000000000000e+000 0.000000000000e+000
          1.656716417909e+002 0.000000000000e+000 0.000000000000e+000
          1.671641791043e+002 0.000000000000e+000 0.000000000000e+000
          1.686567164177e+002 0.000000000000e+000 0.000000000000e+000
          1.701492537312e+002 0.000000000000e+000 0.000000000000e+000
          1.716417910446e+002 0.000000000000e+000 0.000000000000e+000
          1.731343283581e+002 0.000000000000e+000 0.000000000000e+000
          1.746268656715e+002 0.000000000000e+000 0.000000000000e+000
          1.761194029849e+002 0.000000000000e+000 0.000000000000e+000
          1.776119402984e+002 0.000000000000e+000 0.000000000000e+000
          1.791044776118e+002 0.000000000000e+000 0.000000000000e+000
          1.805970149253e+002 0.000000000000e+000 0.000000000000e+000
          1.820895522387e+002 0.000000000000e+000 0.000000000000e+000
          1.835820895521e+002 0.000000000000e+000 0.000000000000e+000
          1.850746268656e+002 0.000000000000e+000 0.000000000000e+000
          1.865671641790e+002 0.000000000000e+000 0.000000000000e+000
          1.880597014925e+002 0.000000000000e+000 0.000000000000e+000
          1.895522388059e+002 0.000000000000e+000 0.000000000000e+000
          1.910447761194e+002 0.000000000000e+000 0.000000000000e+000
          1.925373134328e+002 0.000000000000e+000 0.000000000000e+000
          1.940298507462e+002 0.000000000000e+000 0.000000000000e+000
          1.955223880597e+002 0.000000000000e+000 0.000000000000e+000
          1.970149253731e+002 0.000000000000e+000 0.000000000000e+000
          1.985074626866e+002 0.000000000000e+000 0.000000000000e+000
          2.000000000000e+002 1.428571428570e+000 0.000000000000e+000
          2.000000000000e+002 2.857142857140e+000 0.000000000000e+000
[...]
      <PointData Scalars="MEAN_PRESSURE">
        <DataArray type="Float64" Name="MEAN_PRESSURE" format="ascii">
          2.000000000000e+002 1.994411901082e+002 1.994411885284e+002 2.000000000000e+002 1.994252186482e+002 1.983162065042e+002 1.975981090258e+002 1.971270711707e+002 1.968416306815e+002 1.966884906339e+002 1.966169731865e+002 1.965990773287e+002 1.966113612436e+002 1.966398248684e+002 1.966756595798e+002 1.967143639316e+002 1.967535850353e+002 1.967923507861e+002 1.968304190567e+002 1.968678355145e+002 1.969047628652e+002 1.969413213277e+002 1.969776597954e+002 1.970138557950e+002 1.970499538258e+002 1.970859754407e+002 1.971219330595e+002 1.971578258994e+002 1.971936463465e+002 1.972293886466e+002 1.972650439803e+002 1.973006058769e+002 1.973360621787e+002 1.973714064263e+002 1.974066299657e+002 1.974417232222e+002 1.974766813235e+002 1.975114926369e+002 1.975461524990e+002 1.975806552977e+002 1.976149888511e+002 1.976491434592e+002 1.976831202753e+002 1.977169072140e+002 1.977505005095e+002 1.977838917756e+002 1.978170786392e+002 1.978500425807e+002 1.978827943493e+002 1.979153138760e+002 1.979475981307e+002 1.979796439471e+002 1.980114502801e+002 1.980429919629e+002 1.980742831577e+002 1.981053124108e+002 1.981360772546e+002 1.981665624200e+002 1.981967669493e+002 1.982267010768e+002 1.982563312402e+002 1.982856689964e+002 1.983147080798e+002 1.983434495562e+002 1.983718803248e+002 1.983999985073e+002 1.984278008605e+002 1.984552798197e+002 1.984824372207e+002 1.985092615435e+002 1.985357599677e+002 1.985619150765e+002 1.985877344431e+002 1.986132086082e+002 1.986383341650e+002 1.986631131563e+002 1.986875345437e+002 1.987116061915e+002 1.987353154040e+002 1.987586641097e+002 1.987816427357e+002 1.988042602453e+002 1.988265040240e+002 1.988483790912e+002 1.988698771648e+002 1.988909978745e+002 1.989117416921e+002 1.989321042285e+002 1.989520837202e+002 1.989716791571e+002 1.989908887243e+002 1.990097114747e+002 1.990281460160e+002 1.990461879679e+002 1.990638341292e+002 1.990810919467e+002 1.990979506995e+002 1.991144142184e+002 1.991304819277e+002 1.991461541186e+002 1.991614257235e+002 1.991762938598e+002 1.991907664109e+002 1.992048328034e+002 1.992184974106e+002 1.992317601471e+002 1.992446217662e+002 1.992570775253e+002 1.992691248777e+002 1.992807721393e+002 1.992920088686e+002 1.993028395663e+002 1.993132653725e+002 1.993232882198e+002 1.993329009397e+002 1.993421023129e+002 1.993509015694e+002 1.993592880447e+002 1.993672664125e+002 1.993748375534e+002 1.993820039419e+002 1.993887613153e+002 1.993951062354e+002 1.994010420007e+002 1.994065679528e+002 1.994116809404e+002 1.994163893849e+002 1.994206929352e+002 1.994245805473e+002 1.994280673431e+002 1.994311501774e+002 1.994338025764e+002 1.994360521297e+002 1.994378941231e+002 1.994393496493e+002 1.994403330042e+002 1.994409659069e+002 1.994411682060e+002 1.994411478112e+002 1.994411921032e+002 1.994411832162e+002 1.994411788614e+002 1.994411708688e+002 1.994411656241e+002 1.994411692609e+002 1.994411696806e+002 1.994411596782e+002 1.994411873216e+002 1.994411453016e+002 1.994411664618e+002 1.994409644841e+002 1.994403318745e+002 1.994393486716e+002 1.994378931583e+002 1.994360513855e+002 1.994338031318e+002 1.994311519920e+002 1.994280694159e+002 1.994245824898e+002 1.994206947456e+002 1.994163898274e+002 1.994116817090e+002 1.994065677165e+002 1.994010406866e+002 1.993951052608e+002 1.993887593530e+002 1.993820014897e+002 1.993748428415e+002 1.993672707579e+002 1.993592891505e+002 1.993509013077e+002 1.993421036352e+002 1.993328974859e+002 1.993232876577e+002 1.993132683661e+002 1.993028436039e+002 1.992920088480e+002 1.992807708915e+002 1.992691225316e+002 1.992570761555e+002 1.992446198977e+002 1.992317608887e+002 1.992184988077e+002 1.992048300485e+002 1.991907646259e+002 1.991762921011e+002 1.991614252453e+002 1.991461530141e+002 1.991304829831e+002 1.991144153991e+002 1.990979476444e+002 1.990810901933e+002 1.990638329242e+002 1.990461881424e+002 1.990281457276e+002 1.990097090983e+002 1.989908897645e+002 1.989716798871e+002 1.989520840688e+002 1.989321042282e+002 1.989117428349e+002 1.988910018502e+002 1.988698804081e+002 1.988483788733e+002 1.988265078354e+002 1.988042604551e+002 1.987816435723e+002 1.987586606514e+002 1.987353167786e+002 1.987116058783e+002 1.986875384856e+002 1.986631147619e+002 1.986383354164e+002 1.986132063855e+002 1.985877321209e+002 1.985619164471e+002 1.985357586774e+002 1.985092641949e+002 1.984824358514e+002 1.984552797352e+002 1.984277982984e+002 1.983999969936e+002 1.983718807082e+002 1.983434500532e+002 1.983147111718e+002 1.982856678428e+002 1.982563267790e+002 1.982266913454e+002 1.981967674847e+002 1.981665618529e+002 1.981360756733e+002 1.981053153665e+002 1.980742853191e+002 1.980429931671e+002 1.980114428736e+002 1.979796420335e+002 1.979475960280e+002 1.979153055144e+002 1.978827881404e+002 1.978500421611e+002 1.978170722360e+002 1.977838901401e+002 1.977504939514e+002 1.977168964837e+002 1.976831061163e+002 1.976491247812e+002 1.976149610635e+002 1.975806227856e+002 1.975461150346e+002 1.975114439624e+002 1.974766198960e+002 1.974416458598e+002 1.974065306782e+002 1.973712813140e+002 1.973359048298e+002 1.973004063445e+002 1.972647920967e+002 1.972290701451e+002 1.971932426628e+002 1.971573150908e+002 1.971212890323e+002 1.970851625116e+002 1.970489244922e+002 1.970125543289e+002 1.969760126325e+002 1.969392317091e+002 1.969021078586e+002 1.968644855404e+002 1.968261969365e+002 1.967870142186e+002 1.967468864323e+002 1.967059780194e+002 1.966652067563e+002 1.966267412552e+002 1.965956123868e+002 1.965804786711e+002 1.965960226615e+002 1.966621286135e+002 1.968172236371e+002 1.971051542773e+002 1.975740628923e+002 1.983002473719e+002 1.994057992681e+002 2.000000000000e+002 2.000000000000e+002 2.000000000000e+002 2.000000000000e+002 2.000000000000e+002 2.000000000000e+002 2.000000000000e+002 2.000000000000e+002 2.000000000000e+002 2.000000000000e+002 2.000000000000e+002 2.000000000000e+002 2.000000000000e+002 1.994319586576e+002 1.966201369880e+002 1.994040304222e+002 1.993553044212e+002 1.992857307426e+002 1.991969621353e+002 1.990885069926e+002 1.969585625121e+002 1.989619213008e+002 1.972135783378e+002 1.974613706820e+002 1.977042345223e+002 1.980560002777e+002 1.982710277553e+002 1.984688905426e+002 1.986507594011e+002 1.988154189426e+002 1.967337564848e+002 1.978827927063e+002 1.988909929061e+002 1.988900316528e+002 1.987353160526e+002 1.985619155791e+002 1.983718813988e+002 1.981665637826e+002 1.993830575811e+002 1.993247720501e+002 1.992460957843e+002 1.981665583993e+002 1.983668028519e+002 1.985640117405e+002 1.987310863139e+002 1.991479606723e+002 1.990281384201e+002 1.970839777911e+002 1.973318545064e+002 1.975845219490e+002 1.990289916659e+002 1.991463021332e+002 1.992447416458e+002 1.993232776454e+002 1.993819936417e+002 1.975802763682e+002 1.973355790191e+002 1.970853439179e+002 1.994202630531e+002 1.994200047488e+002 1.978123405084e+002 1.979561937646e+002 1.966300677274e+002 1.968322098867e+002 1.994379547640e+002 1.971174125691e+002 1.994380057742e+002 1.971138562108e+002 1.966150510655e+002 1.968623059134e+002 1.977762999012e+002 1.979841962513e+002 1.994038611610e+002 1.988154221243e+002 1.993551388318e+002 1.986507680227e+002 1.984688992190e+002 1.982710346335e+002 1.980653121756e+002 1.989617321715e+002 1.992866317127e+002 1.991990937937e+002 1.990910657825e+002 1.972108130211e+002 1.974560927538e+002 1.989621110264e+002 1.990895621266e+002 1.991978423487e+002 1.992864339866e+002 1.982709813608e+002 1.984688483989e+002 1.986507186667e+002 1.993551388766e+002 1.988158228526e+002 1.994038543465e+002 1.977000289348e+002 1.974591580744e+002 1.972112185434e+002 1.969579132146e+002 1.994307976085e+002 1.994309894864e+002 1.965926356985e+002 1.969781677608e+002 1.980806325964e+002 1.976740942647e+002 1.994394891452e+002 1.976531075838e+002 1.967377560999e+002 1.966319453884e+002 1.967313153568e+002 1.978640453255e+002 1.977952257789e+002 1.979698776803e+002 1.966162746538e+002 1.968379581984e+002 1.978835289069e+002 1.994233981209e+002 1.992558722375e+002 1.993136252362e+002 1.991599466060e+002 1.993750915717e+002 1.990444216254e+002 1.987547468547e+002 1.983952794004e+002 1.981916978643e+002 1.985852120411e+002 1.971202764322e+002 1.975495004624e+002 1.973039717317e+002 1.988719325556e+002 1.978827898949e+002 1.994401424233e+002 1.981589192438e+002 1.994401423974e+002 1.981287656519e+002 1.987669615678e+002 1.985969268958e+002 1.984100275876e+002 1.982075593155e+002 1.990029703558e+002 1.988613182815e+002 1.989190994459e+002 1.991247352776e+002 1.976272696831e+002 1.992270233424e+002 1.973839838014e+002 1.993095470883e+002 1.971343021182e+002 1.993721472683e+002 1.993718591392e+002 1.993915412095e+002 1.993091450346e+002 1.993364333303e+002 1.992257927699e+002 1.992609791326e+002 1.991232416802e+002 1.991662364997e+002 1.971396845327e+002 1.990517785588e+002 1.990029173598e+002 1.973873933615e+002 1.972891555923e+002 1.982077164996e+002 1.984111621014e+002 1.985989729176e+002 1.983341595275e+002 1.985270877264e+002 1.987659323722e+002 1.987038335801e+002 1.975436592114e+002 1.989191533974e+002 1.988653736452e+002 1.993910871937e+002 1.970359330531e+002 1.993348243297e+002 1.972929220185e+002 1.992596422525e+002 1.975388213598e+002 1.991645842538e+002 1.981200632602e+002 1.983302544389e+002 1.985236005662e+002 1.987001366689e+002 1.990499317581e+002 1.967158807981e+002 1.994144599947e+002 1.994142505528e+002 1.979902789909e+002 1.977691815273e+002 1.968819965376e+002 1.989173369458e+002 1.985278640759e+002 1.987049435841e+002 1.983354883205e+002 1.981206882784e+002 1.970386909358e+002 1.973810154046e+002 1.993906869755e+002 1.976251998030e+002 1.993354514301e+002 1.992281596297e+002 1.990045912364e+002 1.991261133512e+002 1.970490753419e+002 1.994247227120e+002 1.994247219638e+002 1.979337907518e+002 1.965959580854e+002 1.994149039166e+002 1.989339242283e+002 1.989894607678e+002 1.991131691497e+002 1.976497449625e+002 1.992174667954e+002 1.974092517308e+002 1.983125524745e+002 1.985072693482e+002 1.986857258424e+002 1.993952229609e+002 1.970123052722e+002 1.993427899677e+002 1.968123491491e+002 1.981079320242e+002 1.994359575520e+002 1.994357059285e+002 1.994110774337e+002 1.981399844069e+002 1.976107303911e+002 1.980151701759e+002 1.977455310076e+002 1.968083795330e+002 1.969086894345e+002 1.965820635717e+002 1.966549202591e+002 1.969094039518e+002 1.987805629425e+002 1.986124076958e+002 1.984269227264e+002 1.982257487726e+002 1.993033931177e+002 1.971556251319e+002 1.993676872737e+002 1.988474877857e+002 1.990633621435e+002 1.993024159965e+002 1.991769231201e+002 1.993669635803e+002 1.992696301710e+002 1.987832813378e+002 1.986123376799e+002 1.984289504296e+002 1.982279327612e+002 1.971591791086e+002 1.975124676542e+002 1.972634807568e+002 1.972633743873e+002 1.992696220006e+002 1.975100028064e+002 1.991769033170e+002 1.990645587415e+002 1.988474699241e+002 1.994402467583e+002 1.994403073278e+002 1.982532997004e+002 1.981428141004e+002 1.994364179025e+002 1.968604270667e+002 1.994280387010e+002 1.994286082851e+002 1.966877785622e+002 1.994343927980e+002 1.965950750235e+002 1.968988867478e+002 1.977369622449e+002 1.980248302904e+002 1.969299418867e+002 1.965996365636e+002 1.977141424975e+002 1.967950931453e+002 1.967885231453e+002 1.980468660290e+002 1.966878986890e+002 1.977982323654e+002 1.979302710639e+002 1.966610146222e+002 1.973984265525e+002 1.989963423533e+002 1.991181949611e+002 1.992216240022e+002 1.993410879365e+002 1.993944682075e+002 1.989263129299e+002 1.981118317366e+002 1.983206183774e+002 1.985147137676e+002 1.986924931732e+002 1.978334818974e+002 1.967951784608e+002 1.979369855535e+002 1.978245015985e+002 1.994123164280e+002 1.994336267115e+002 1.970224534770e+002 1.976336929795e+002 1.967313822051e+002 1.970100677572e+002 1.994375064769e+002 1.966772078093e+002 1.988031953340e+002 1.986371509377e+002 1.984539864630e+002 1.982549325861e+002 1.989712011035e+002 1.989525547344e+002 1.988278795503e+002 1.990987200852e+002 1.992054709166e+002 1.976815119221e+002 1.992925144729e+002 1.974399984827e+002 1.993596596952e+002 1.971915707121e+002 1.994008991077e+002 1.993593739658e+002 1.992926927302e+002 1.992058978178e+002 1.990992319004e+002 1.971913800450e+002 1.974389825738e+002 1.982560095512e+002 1.984537709468e+002 1.986369545233e+002 1.994007631893e+002 1.969777911866e+002 1.980772486538e+002 1.994042742179e+002 1.994295980440e+002 1.994296007638e+002 1.969951783217e+002 1.968997811199e+002 1.965822408699e+002 1.979182835395e+002 1.993857974522e+002 1.993286665439e+002 1.992375291176e+002 1.991375021516e+002 1.990163301047e+002 1.970654327699e+002 1.973556046519e+002 1.975997075509e+002 1.987229593497e+002 1.983570494632e+002 1.981509083759e+002 1.985451324315e+002 1.989043838775e+002 1.994179106423e+002 1.994384493488e+002 1.994384505889e+002 1.993537031383e+002 1.992000898774e+002 1.990922602283e+002 1.974536006363e+002 1.982760176727e+002 1.984735105470e+002 1.986549734564e+002 1.972575927063e+002 1.978479706851e+002 1.989655770498e+002 1.989583683673e+002 1.980645948737e+002 1.994407171096e+002 1.987951576525e+002 1.976578229860e+002 1.980982491910e+002 1.990274595882e+002 1.991455703401e+002 1.992441424819e+002 1.993819962856e+002 1.993233029087e+002 1.975818995428e+002 1.973372246089e+002 1.970851869022e+002 1.985619139230e+002 1.987353149156e+002 1.981665587218e+002 1.983718784067e+002 1.993819920056e+002 1.993232813528e+002 1.983718716178e+002 1.985623590933e+002 1.992446100637e+002 1.987355246418e+002 1.991461435536e+002 1.990283075744e+002 1.973360543013e+002 1.988917716166e+002 1.988909918751e+002 1.967713693153e+002 1.977461488915e+002 1.967577832831e+002 1.981235360996e+002 1.978909870461e+002 1.994257600900e+002 1.994254075018e+002 1.979788706304e+002 1.979969427861e+002 1.979059918862e+002 1.989800187612e+002 1.987945403218e+002 1.988359938955e+002 1.989435046098e+002 1.986736974503e+002 1.984940558635e+002 1.982982403045e+002 1.990736877379e+002 1.972447828311e+002 1.974917255060e+002 1.993477210981e+002 1.992757894100e+002 1.991845644527e+002 1.993471519556e+002 1.972445116569e+002 1.992757928941e+002 1.974916727038e+002 1.982982429415e+002 1.984940585072e+002 1.986702982976e+002 1.991845668869e+002 1.990736890066e+002 1.973845485925e+002 1.965856173834e+002 1.994386954701e+002 1.973393960206e+002 1.988162357634e+002 1.988146080746e+002 1.972104138747e+002 1.972099724462e+002 1.992868417342e+002 1.992867475829e+002 1.994352546974e+002 1.966868137747e+002 1.966818071986e+002 1.969800523966e+002 1.967279838425e+002 1.994407555806e+002 1.988956134308e+002 1.994407799837e+002 1.988172996162e+002 1.966331812147e+002 1.994086357157e+002 1.994087337369e+002 1.990890894589e+002 1.991974477592e+002 1.974601565296e+002 1.986496784051e+002 1.982697442386e+002 1.984677025005e+002 1.993552230711e+002 1.968558738980e+002 1.968630469922e+002 1.965890654240e+002 1.980309808558e+002 1.977300486453e+002 1.965958317453e+002 1.969252974953e+002 1.970940655048e+002 1.977910657152e+002 1.968905782912e+002 1.994197271000e+002 1.994197277064e+002 1.977663681554e+002 1.980073032696e+002 1.994142524140e+002 1.976745916486e+002 1.980130161092e+002 1.979759679016e+002 1.993358052986e+002 1.970363475127e+002 1.993910259142e+002 1.983128426506e+002 1.985070532283e+002 1.986859689094e+002 1.989351327305e+002 1.973852721629e+002 1.992265449317e+002 1.976281867360e+002 1.991241552355e+002 1.989880184024e+002 1.994037069654e+002 1.967895921048e+002 1.979342736202e+002 1.978566093542e+002 1.976990501622e+002 1.966341371936e+002 1.994408181509e+002 1.989747982545e+002 1.994408196325e+002 1.990621682388e+002 1.967410432082e+002 1.969597591464e+002 1.978777684977e+002 1.977921021733e+002 1.994354611397e+002 1.975683596274e+002 1.981753409537e+002 1.968596635452e+002 1.980352783036e+002 1.967003857978e+002 1.990512193536e+002 1.991656700772e+002 1.992605234420e+002 1.975362900865e+002 1.972903416189e+002 1.992705060108e+002 1.993664450691e+002 1.991780113362e+002 1.993017407643e+002 1.990658859716e+002 1.972608054983e+002 1.975073904823e+002 1.971616441337e+002 1.982298287737e+002 1.986161782441e+002 1.984306524814e+002 1.987843249783e+002 1.993716709829e+002 1.993088937256e+002 1.971366306446e+002 1.988637979817e+002 1.982052780378e+002 1.984079060494e+002 1.985949815005e+002 1.987652033385e+002 1.988461370051e+002 1.988909954416e+002 1.987353013785e+002 1.983718691646e+002 1.985619125633e+002 1.981665536806e+002 1.993819995268e+002 1.993232828952e+002 1.992447941889e+002 1.990281418650e+002 1.991463676771e+002 1.970858590124e+002 1.973354854912e+002 1.975805985752e+002 1.977268472287e+002 1.969139709533e+002 1.994350945742e+002 1.967384919166e+002 1.988435634669e+002 1.987866778745e+002 1.986183953337e+002 1.984334712995e+002 1.982328058497e+002 1.993000740935e+002 1.993652787781e+002 1.971667947183e+002 1.992717189480e+002 1.991792241379e+002 1.990671690177e+002 1.972570172498e+002 1.975047855753e+002 1.978717456424e+002 1.994202661924e+002 1.978454408191e+002 1.994232788824e+002 1.988882059592e+002 1.988928003374e+002 1.987403754200e+002 1.985674251209e+002 1.983779679111e+002 1.981730998893e+002 1.993810700903e+002 1.993219741672e+002 1.992422732579e+002 1.991432886716e+002 1.990305548606e+002 1.973425658546e+002 1.990265683650e+002 1.983756294120e+002 1.985584569927e+002 1.987384334626e+002 1.991451372592e+002 1.992437871009e+002 1.975828540504e+002 1.993234027578e+002 1.973382183284e+002 1.993820821099e+002 1.970847762161e+002 1.967348640603e+002 1.993150038652e+002 1.971153323730e+002 1.993760863974e+002 1.983938360878e+002 1.987535517126e+002 1.985834494597e+002 1.981901461128e+002 1.973088972059e+002 1.992541374283e+002 1.975543191067e+002 1.991578178855e+002 1.990415699454e+002 1.988753313969e+002 1.966384690388e+002 1.994407880052e+002 1.989128740345e+002 1.994275400134e+002 1.994332173131e+002 1.994332146020e+002 1.978380742037e+002 1.979270389120e+002 1.968480357308e+002 1.970909231875e+002 1.994113371722e+002 1.966406377109e+002 1.994197035225e+002 1.994195859592e+002 1.969483423623e+002 1.989873255962e+002 1.991116186695e+002 1.976537968539e+002 1.992161827993e+002 1.974126106745e+002 1.986877057544e+002 1.985072951242e+002 1.983149154457e+002 1.989348044838e+002 1.993961009858e+002 1.970036580751e+002 1.993436423057e+002 1.976978050892e+002 1.980618743772e+002 1.978160871886e+002 1.966275992369e+002 1.966012644650e+002 1.994396755705e+002 1.978040131310e+002 1.994396751288e+002 1.977458322858e+002 1.981773908140e+002 1.975693259180e+002 1.980978748898e+002 1.966566594772e+002 1.993984445079e+002 1.973299975261e+002 1.977732774826e+002 1.979610236217e+002 1.978106691738e+002 1.968367342831e+002 1.966247696615e+002 1.967438191403e+002 1.976199524385e+002 1.966235113845e+002 1.967858157155e+002 1.978310844120e+002 1.965949118055e+002 1.966005135131e+002 1.979014064965e+002 1.977542783047e+002 1.979678020759e+002 1.977873186767e+002 1.994309768292e+002 1.968453525413e+002 1.970269886846e+002 1.989069507654e+002 1.989423882657e+002 1.993982741802e+002 1.993469259456e+002 1.993878773928e+002 1.993312033342e+002 1.992165153076e+002 1.991120172274e+002 1.974118371954e+002 1.990140486563e+002 1.989811009643e+002 1.981377053191e+002 1.980937040870e+002 1.983453175302e+002 1.983003164363e+002 1.984959739627e+002 1.985375140630e+002 1.987130779246e+002 1.986753716606e+002 1.970831308672e+002 1.994378696435e+002 1.994378409539e+002 1.994395500882e+002 1.994395508617e+002 1.974441862723e+002 1.994390892795e+002 1.987700572553e+002 1.986003564589e+002 1.984137675175e+002 1.982115825165e+002 1.988592542982e+002 1.989218481741e+002 1.990004650113e+002 1.991225960779e+002 1.976318569418e+002 1.992252604044e+002 1.973887082758e+002 1.993081664068e+002 1.971391001243e+002 1.993711491379e+002 1.993711345229e+002 1.993081451162e+002 1.993919824161e+002 1.992251781627e+002 1.991224967615e+0