<?xml version="1.0"?>
<VTKFile type="UnstructuredGrid" version="0.1" byte_order="LittleEndian">
  <UnstructuredGrid>
    <Piece NumberOfPoints="2604" NumberOfCells="4910">
      <Points>
        <DataArray type="Float64" NumberOfComponents="3" format="ascii">
          0.000000000000e+000 0.000000000000e+000 0.000000000000e+000
          2.000000000000e+002 0.000000000000e+000 0.000000000000e+000
          2.000000000000e+002 2.000000000000e+001 0.000000000000e+000
          0.000000000000e+000 2.000000000000e+001 0.000000000000e+000
          1.492537313427e+000 0.000000000000e+000 0.000000000000e+000
          2.985074626854e+000 0.000000000000e+000 0.000000000000e+000
          4.477611940281e+000 0.000000000000e+000 0.000000000000e+000
          5.970149253708e+000 0.000000000000e+000 0.000000000000e+000
          7.462686567135e+000 0.000000000000e+000 0.000000000000e+000
          8.955223880561e+000 0.000000000000e+000 0.000000000000e+000
          1.044776119399e+001 0.000000000000e+000 0.000000000000e+000
          1.194029850741e+001 0.000000000000e+000 0.000000000000e+000
          1.343283582084e+001 0.000000000000e+000 0.000000000000e+000
          1.492537313427e+001 0.000000000000e+000 0.000000000000e+000
          1.641791044770e+001 0.000000000000e+000 0.000000000000e+000
          1.791044776112e+001 0.000000000000e+000 0.000000000000e+000
          1.940298507455e+001 0.000000000000e+000 0.000000000000e+000
          2.089552238798e+001 0.000000000000e+000 0.000000000000e+000
          2.238805970141e+001 0.000000000000e+000 0.000000000000e+000
          2.388059701484e+001 0.000000000000e+000 0.000000000000e+000
          2.537313432826e+001 0.000000000000e+000 0.000000000000e+000
          2.686567164169e+001 0.000000000000e+000 0.000000000000e+000
          2.835820895511e+001 0.000000000000e+000 0.000000000000e+000
          2.985074626854e+001 0.000000000000e+000 0.000000000000e+000
          3.134328358196e+001 0.000000000000e+000 0.000000000000e+000
          3.283582089539e+001 0.000000000000e+000 0.000000000000e+000
          3.432835820881e+001 0.000000000000e+000 0.000000000000e+000
          3.582089552224e+001 0.000000000000e+000 0.000000000000e+000
          3.731343283566e+001 0.000000000000e+000 0.000000000000e+000
          3.880597014909e+001 0.000000000000e+000 0.000000000000e+000
          4.029850746251e+001 0.000000000000e+000 0.000000000000e+000
          4.179104477594e+001 0.000000000000e+000 0.000000000000e+000
          4.328358208936e+001 0.000000000000e+000 0.000000000000e+000
          4.477611940279e+001 0.000000000000e+000 0.000000000000e+000
          4.626865671621e+001 0.000000000000e+000 0.000000000000e+000
          4.776119402964e+001 0.000000000000e+000 0.000000000000e+000
          4.925373134306e+001 0.000000000000e+000 0.000000000000e+000
          5.074626865649e+001 0.000000000000e+000 0.000000000000e+000
          5.223880596991e+001 0.000000000000e+000 0.000000000000e+000
          5.373134328334e+001 0.000000000000e+000 0.000000000000e+000
          5.522388059676e+001 0.000000000000e+000 0.000000000000e+000
          5.671641791019e+001 0.000000000000e+000 0.000000000000e+000
          5.820895522361e+001 0.000000000000e+000 0.000000000000e+000
          5.970149253704e+001 0.000000000000e+000 0.000000000000e+000
          6.119402985046e+001 0.000000000000e+000 0.000000000000e+000
          6.268656716389e+001 0.000000000000e+000 0.000000000000e+000
          6.417910447732e+001 0.000000000000e+000 0.000000000000e+000
          6.567164179075e+001 0.000000000000e+000 0.000000000000e+000
          6.716417910418e+001 0.000000000000e+000 0.000000000000e+000
          6.865671641761e+001 0.000000000000e+000 0.000000000000e+000
          7.014925373104e+001 0.000000000000e+000 0.000000000000e+000
          7.164179104447e+001 0.000000000000e+000 0.000000000000e+000
          7.313432835790e+001 0.000000000000e+000 0.000000000000e+000
          7.462686567133e+001 0.000000000000e+000 0.000000000000e+000
          7.611940298476e+001 0.000000000000e+000 0.000000000000e+000
          7.761194029819e+001 0.000000000000e+000 0.000000000000e+000
          7.910447761162e+001 0.000000000000e+000 0.000000000000e+000
          8.059701492505e+001 0.000000000000e+000 0.000000000000e+000
          8.208955223848e+001 0.000000000000e+000 0.000000000000e+000
          8.358208955191e+001 0.000000000000e+000 0.000000000000e+000
          8.507462686534e+001 0.000000000000e+000 0.000000000000e+000
          8.656716417877e+001 0.000000000000e+000 0.000000000000e+000
          8.805970149220e+001 0.000000000000e+000 0.000000000000e+000
          8.955223880563e+001 0.000000000000e+000 0.000000000000e+000
          9.104477611907e+001 0.000000000000e+000 0.000000000000e+000
          9.253731343250e+001 0.000000000000e+000 0.000000000000e+000
          9.402985074593e+001 0.000000000000e+000 0.000000000000e+000
          9.552238805936e+001 0.000000000000e+000 0.000000000000e+000
          9.701492537279e+001 0.000000000000e+000 0.000000000000e+000
          9.850746268622e+001 0.000000000000e+000 0.000000000000e+000
          9.999999999965e+001 0.000000000000e+000 0.000000000000e+000
          1.014925373131e+002 0.000000000000e+000 0.000000000000e+000
          1.029850746265e+002 0.000000000000e+000 0.000000000000e+000
          1.044776119399e+002 0.000000000000e+000 0.000000000000e+000
          1.059701492534e+002 0.000000000000e+000 0.000000000000e+000
          1.074626865668e+002 0.000000000000e+000 0.000000000000e+000
          1.089552238802e+002 0.000000000000e+000 0.000000000000e+000
          1.104477611937e+002 0.000000000000e+000 0.000000000000e+000
          1.119402985071e+002 0.000000000000e+000 0.000000000000e+000
          1.134328358205e+002 0.000000000000e+000 0.000000000000e+000
          1.149253731340e+002 0.000000000000e+000 0.000000000000e+000
          1.164179104474e+002 0.000000000000e+000 0.000000000000e+000
          1.179104477608e+002 0.000000000000e+000 0.000000000000e+000
          1.194029850742e+002 0.000000000000e+000 0.000000000000e+000
          1.208955223877e+002 0.000000000000e+000 0.000000000000e+000
          1.223880597011e+002 0.000000000000e+000 0.000000000000e+000
          1.238805970145e+002 0.000000000000e+000 0.000000000000e+000
          1.253731343280e+002 0.000000000000e+000 0.000000000000e+000
          1.268656716414e+002 0.000000000000e+000 0.000000000000e+000
          1.283582089548e+002 0.000000000000e+000 0.000000000000e+000
          1.298507462683e+002 0.000000000000e+000 0.000000000000e+000
          1.313432835817e+002 0.000000000000e+000 0.000000000000e+000
          1.328358208952e+002 0.000000000000e+000 0.000000000000e+000
          1.343283582086e+002 0.000000000000e+000 0.000000000000e+000
          1.358208955220e+002 0.000000000000e+000 0.000000000000e+000
          1.373134328355e+002 0.000000000000e+000 0.000000000000e+000
          1.388059701489e+002 0.000000000000e+000 0.000000000000e+000
          1.402985074624e+002 0.000000000000e+000 0.000000000000e+000
          1.417910447758e+002 0.000000000000e+000 0.000000000000e+000
          1.432835820892e+002 0.000000000000e+000 0.000000000000e+000
          1.447761194027e+002 0.000000000000e+000 0.000000000000e+000
          1.462686567161e+002 0.000000000000e+000 0.000000000000e+000
          1.477611940296e+002 0.000000000000e+000 0.000000000000e+000
          1.492537313430e+002 0.000000000000e+000 0.000000000000e+000
          1.507462686564e+002 0.000000000000e+000 0.000000000000e+000
          1.522388059699e+002 0.000000000000e+000 0.000000000000e+000
          1.537313432833e+002 0.000000000000e+000 0.000000000000e+000
          1.552238805968e+002 0.000000000000e+000 0.000000000000e+000
          1.567164179102e+002 0.000000000000e+000 0.000000000000e+000
          1.582089552237e+002 0.000000000000e+000 0.000000000000e+000
          1.597014925371e+002 0.000000000000e+000 0.000000000000e+000
          1.611940298505e+002 0.000000000000e+000 0.000000000000e+000
          1.626865671640e+002 0.000000000000e+000 0.000000000000e+000
          1.641791044774e+002 0.000000000000e+000 0.000000000000e+000
          1.656716417909e+002 0.000000000000e+000 0.000000000000e+000
          1.671641791043e+002 0.000000000000e+000 0.000000000000e+000
          1.686567164177e+002 0.000000000000e+000 0.000000000000e+000
          1.701492537312e+002 0.000000000000e+000 0.000000000000e+000
          1.716417910446e+002 0.000000000000e+000 0.000000000000e+000
          1.731343283581e+002 0.000000000000e+000 0.000000000000e+000
          1.746268656715e+002 0.000000000000e+000 0.000000000000e+000
          1.761194029849e+002 0.000000000000e+000 0.000000000000e+000
          1.776119402984e+002 0.000000000000e+000 0.000000000000e+000
          1.791044776118e+002 0.000000000000e+000 0.000000000000e+000
          1.805970149253e+002 0.000000000000e+000 0.000000000000e+000
          1.820895522387e+002 0.000000000000e+000 0.000000000000e+000
          1.835820895521e+002 0.000000000000e+000 0.000000000000e+000
          1.850746268656e+002 0.000000000000e+000 0.000000000000e+000
          1.865671641790e+002 0.000000000000e+000 0.000000000000e+000
          1.880597014925e+002 0.000000000000e+000 0.000000000000e+000
          1.895522388059e+002 0.000000000000e+000 0.000000000000e+000
          1.910447761194e+002 0.000000000000e+000 0.000000000000e+000
          1.925373134328e+002 0.000000000000e+000 0.000000000000e+000
          1.940298507462e+002 0.000000000000e+000 0.000000000000e+000
          1.955223880597e+002 0.000000000000e+000 0.000000000000e+000
          1.970149253731e+002 0.000000000000e+000 0.000000000000e+000
          1.985074626866e+002 0.000000000000e+000 0.000000000000e+000
          2.000000000000e+002 1.428571428570e+000 0.000000000000e+000
          2.000000000000e+002 2.857142857140e+000 0.000000000000e+000
[...]
      <PointData Scalars="MEAN_PRESSURE">
        <DataArray type="Float64" Name="MEAN_PRESSURE" format="ascii">
          2.000000000000e+002 1.999999999395e+002 1.999999999395e+002 2.000000000000e+002 1.977952117060e+002 1.961390749828e+002 1.957517528822e+002 1.958403867088e+002 1.959647277954e+002 1.960878901371e+002 1.962143007410e+002 1.963437551525e+002 1.964752420361e+002 1.966077687115e+002 1.967406817740e+002 1.968734551991e+002 1.970056400871e+002 1.971367890094e+002 1.972665605651e+002 1.973945934901e+002 1.975206521666e+002 1.976442608135e+002 1.977652957334e+002 1.978835381340e+002 1.979988101978e+002 1.981108462731e+002 1.982195818752e+002 1.983248469994e+002 1.984264583462e+002 1.985243576025e+002 1.986184550423e+002 1.987087996717e+002 1.987952370881e+002 1.988778156524e+002 1.989565293215e+002 1.990313610221e+002 1.991024314924e+002 1.991696846190e+002 1.992332595933e+002 1.992932671569e+002 1.993496826755e+002 1.994025651085e+002 1.994521783548e+002 1.994985405662e+002 1.995418181827e+002 1.995821057717e+002 1.996195840695e+002 1.996542323304e+002 1.996863890219e+002 1.997160262546e+002 1.997433121689e+002 1.997684080804e+002 1.997914781461e+002 1.998125023355e+002 1.998317574327e+002 1.998493161384e+002 1.998653102874e+002 1.998798001447e+002 1.998929209244e+002 1.999048386001e+002 1.999155335423e+002 1.999251699429e+002 1.999338293154e+002 1.999416096795e+002 1.999485653292e+002 1.999547759625e+002 1.999603117683e+002 1.999652308256e+002 1.999696020045e+002 1.999734675568e+002 1.999768926778e+002 1.999799065028e+002 1.999825634873e+002 1.999848958072e+002 1.999869394881e+002 1.999887300642e+002 1.999902909224e+002 1.999916542603e+002 1.999928384408e+002 1.999938667633e+002 1.999947554599e+002 1.999955256008e+002 1.999961888579e+002 1.999967606063e+002 1.999972512424e+002 1.999976719015e+002 1.999980321238e+002 1.999983396889e+002 1.999986017636e+002 1.999988247401e+002 1.999990140230e+002 1.999991744483e+002 1.999993101392e+002 1.999994245512e+002 1.999995207363e+002 1.999996017857e+002 1.999996696346e+002 1.999997264442e+002 1.999997739328e+002 1.999998135738e+002 1.999998465402e+002 1.999998738712e+002 1.999998965889e+002 1.999999153395e+002 1.999999308210e+002 1.999999435835e+002 1.999999540904e+002 1.999999627072e+002 1.999999697514e+002 1.999999755273e+002 1.999999802279e+002 1.999999840550e+002 1.999999871672e+002 1.999999896964e+002 1.999999917406e+002 1.999999933884e+002 1.999999947216e+002 1.999999957916e+002 1.999999966508e+002 1.999999973398e+002 1.999999978921e+002 1.999999983329e+002 1.999999986832e+002 1.999999989618e+002 1.999999991829e+002 1.999999993575e+002 1.999999994958e+002 1.999999996051e+002 1.999999996905e+002 1.999999997577e+002 1.999999998100e+002 1.999999998498e+002 1.999999998803e+002 1.999999999032e+002 1.999999999200e+002 1.999999999306e+002 1.999999999372e+002 1.999999999393e+002 1.999999999391e+002 1.999999999395e+002 1.999999999394e+002 1.999999999394e+002 1.999999999393e+002 1.999999999393e+002 1.999999999393e+002 1.999999999393e+002 1.999999999392e+002 1.999999999395e+002 1.999999999391e+002 1.999999999393e+002 1.999999999372e+002 1.999999999306e+002 1.999999999200e+002 1.999999999032e+002 1.999999998804e+002 1.999999998499e+002 1.999999998101e+002 1.999999997578e+002 1.999999996907e+002 1.999999996053e+002 1.999999994960e+002 1.999999993578e+002 1.999999991831e+002 1.999999989620e+002 1.999999986834e+002 1.999999983329e+002 1.999999978919e+002 1.999999973420e+002 1.999999966531e+002 1.999999957927e+002 1.999999947225e+002 1.999999933912e+002 1.999999917394e+002 1.999999896985e+002 1.999999871740e+002 1.999999840646e+002 1.999999802302e+002 1.999999755276e+002 1.999999697500e+002 1.999999627095e+002 1.999999540896e+002 1.999999435946e+002 1.999999308403e+002 1.999999153275e+002 1.999998965832e+002 1.999998738641e+002 1.999998465446e+002 1.999998135596e+002 1.999997739474e+002 1.999997264688e+002 1.999996695454e+002 1.999996017262e+002 1.999995206868e+002 1.999994245425e+002 1.999993100962e+002 1.999991742754e+002 1.999990140701e+002 1.999988247664e+002 1.999986017721e+002 1.999983396811e+002 1.999980323073e+002 1.999976725845e+002 1.999972518844e+002 1.999967605873e+002 1.999961897772e+002 1.999955256487e+002 1.999947558851e+002 1.999938657472e+002 1.999928394497e+002 1.999916546404e+002 1.999902936778e+002 1.999887316644e+002 1.999869410619e+002 1.999848948907e+002 1.999825623157e+002 1.999799089761e+002 1.999768925228e+002 1.999734724392e+002 1.999696013374e+002 1.999652320840e+002 1.999603085878e+002 1.999547743970e+002 1.999485678006e+002 1.999416126441e+002 1.999338392669e+002 1.999251667573e+002 1.999155176600e+002 1.999047998049e+002 1.998929233165e+002 1.998797975085e+002 1.998653020712e+002 1.998493348247e+002 1.998317733304e+002 1.998125144827e+002 1.997914261955e+002 1.997683993170e+002 1.997433033935e+002 1.997159610055e+002 1.996863513839e+002 1.996542678255e+002 1.996195623179e+002 1.995821680647e+002 1.995418396756e+002 1.994985347482e+002 1.994521638503e+002 1.994025340886e+002 1.993495634107e+002 1.992931677292e+002 1.992332149175e+002 1.991695990261e+002 1.991023225596e+002 1.990312307615e+002 1.989563200336e+002 1.988775583771e+002 1.987949366672e+002 1.987084081013e+002 1.986179647124e+002 1.985237180236e+002 1.984256182775e+002 1.983237758765e+002 1.982182827022e+002 1.981092615896e+002 1.979967929890e+002 1.978809877267e+002 1.977620267158e+002 1.976400731579e+002 1.975153291712e+002 1.973879549244e+002 1.972582480863e+002 1.971262893723e+002 1.969924475751e+002 1.968568560948e+002 1.967197809350e+002 1.965815061595e+002 1.964423881203e+002 1.963028133173e+002 1.961636369750e+002 1.960258462725e+002 1.958909648808e+002 1.957539848915e+002 1.956737926693e+002 1.960420330647e+002 1.977336156942e+002 2.000000000000e+002 2.000000000000e+002 2.000000000000e+002 2.000000000000e+002 2.000000000000e+002 2.000000000000e+002 2.000000000000e+002 2.000000000000e+002 2.000000000000e+002 2.000000000000e+002 2.000000000000e+002 2.000000000000e+002 2.000000000000e+002 1.999999998225e+002 1.961223367393e+002 1.999999990844e+002 1.999999952999e+002 1.999999776884e+002 1.999999051787e+002 1.999996326823e+002 1.977032482545e+002 1.999987169479e+002 1.984815544598e+002 1.990716879926e+002 1.994814161730e+002 1.998207099753e+002 1.999204454126e+002 1.999674683607e+002 1.999878593560e+002 1.999958670078e+002 1.969436624913e+002 1.996863814290e+002 1.999976712065e+002 1.999976545701e+002 1.999928390306e+002 1.999799072349e+002 1.999485677467e+002 1.998798048991e+002 1.999999979682e+002 1.999999900456e+002 1.999999551461e+002 1.998797799724e+002 1.999473594839e+002 1.999801345397e+002 1.999926352743e+002 1.999998176131e+002 1.999993096667e+002 1.981049986850e+002 1.987850892631e+002 1.992996775147e+002 1.999993158730e+002 1.999998137923e+002 1.999999541503e+002 1.999999896845e+002 1.999999978896e+002 1.992925099964e+002 1.987940681728e+002 1.981095495847e+002 1.999999995948e+002 1.999999995885e+002 1.996143032991e+002 1.997502166554e+002 1.965899032457e+002 1.972773904561e+002 1.999999999039e+002 1.957816405422e+002 1.999999999045e+002 1.956883024360e+002 1.965072885750e+002 1.973766908811e+002 1.995733062468e+002 1.997718486142e+002 1.999999990797e+002 1.999958680057e+002 1.999999952829e+002 1.999878655589e+002 1.999674824219e+002 1.999204699505e+002 1.998264040312e+002 1.999987149757e+002 1.999999780481e+002 1.999999079957e+002 1.999996430059e+002 1.984738050570e+002 1.990609688810e+002 1.999987190108e+002 1.999996368963e+002 1.999999063371e+002 1.999999779784e+002 1.999204139579e+002 1.999674558536e+002 1.999878528423e+002 1.999999952812e+002 1.999958783419e+002 1.999999990787e+002 1.994757769080e+002 1.990671982950e+002 1.984751763318e+002 1.977019268307e+002 1.999999998042e+002 1.999999998073e+002 1.961645372871e+002 1.977673406434e+002 1.998354598932e+002 1.994393214754e+002 1.999999999215e+002 1.956526302491e+002 1.969537286857e+002 1.961548175339e+002 1.969400257609e+002 1.996682358050e+002 1.995951953982e+002 1.997609240270e+002 1.965250384872e+002 1.972953041172e+002 1.996870639641e+002 1.999999996660e+002 1.999999619155e+002 1.999999872450e+002 1.999998435123e+002 1.999999973568e+002 1.999994131141e+002 1.999936986575e+002 1.999537580684e+002 1.998907709526e+002 1.999823023676e+002 1.982148214503e+002 1.992390649581e+002 1.987171519852e+002 1.999972910688e+002 1.996863577201e+002 1.999999999286e+002 1.959679670994e+002 1.999999999286e+002 1.958661710215e+002 1.999941972591e+002 1.999834271386e+002 1.999568211090e+002 1.998973028491e+002 1.999991189078e+002 1.999970636505e+002 1.999981467259e+002 1.999997575871e+002 1.993689096978e+002 1.999999392084e+002 1.989062507304e+002 1.999999861000e+002 1.982566249674e+002 1.999999971045e+002 1.999999970835e+002 1.999999984919e+002 1.999999860057e+002 1.999999923961e+002 1.999999381042e+002 1.999999650699e+002 1.999997534360e+002 1.999998556898e+002 1.982720236947e+002 1.999994561503e+002 1.999991183297e+002 1.989139705223e+002 1.986799549519e+002 1.998974464219e+002 1.999570685976e+002 1.999836195431e+002 1.999391536608e+002 1.999758031877e+002 1.999941569242e+002 1.999912270501e+002 1.992287904445e+002 1.999981473475e+002 1.999971531770e+002 1.999999984674e+002 1.979556282615e+002 1.999999921015e+002 1.986896244679e+002 1.999999642816e+002 1.992200465231e+002 1.999998526206e+002 1.998571594063e+002 1.999381433679e+002 1.999753726153e+002 1.999910281919e+002 1.999994458818e+002 1.968869124341e+002 1.999999994413e+002 1.999999994352e+002 1.997762994403e+002 1.995646827595e+002 1.974470042021e+002 1.999981196358e+002 1.999758970107e+002 1.999912860610e+002 1.999394957801e+002 1.998574547861e+002 1.979637294319e+002 1.988995911259e+002 1.999999984438e+002 1.993657566931e+002 1.999999922192e+002 1.999999402817e+002 1.999991323865e+002 1.999997616051e+002 1.979960512124e+002 1.999999996936e+002 1.999999996935e+002 1.997318430247e+002 1.964442146365e+002 1.999999994542e+002 1.999983648183e+002 1.999990003190e+002 1.999997224174e+002 1.994034903902e+002 1.999999297378e+002 1.989622474673e+002 1.999332167619e+002 1.999731931375e+002 1.999901827680e+002 1.999999986897e+002 1.978797139981e+002 1.999999935025e+002 1.972053066932e+002 1.998507016513e+002 1.999999998792e+002 1.999999998758e+002 1.999999993388e+002 1.998672064249e+002 1.993427927673e+002 1.997939531412e+002 1.995355587851e+002 1.958777156656e+002 1.975365007600e+002 1.963242279670e+002 1.966680950216e+002 1.975366201650e+002 1.999947157737e+002 1.999848262384e+002 1.999601386344e+002 1.999044370012e+002 1.999999842440e+002 1.983188312511e+002 1.999999966946e+002 1.999967416302e+002 1.999995190831e+002 1.999999839454e+002 1.999998751021e+002 1.999999966277e+002 1.999999700526e+002 1.999948142875e+002 1.999848232781e+002 1.999605164913e+002 1.999052480186e+002 1.983289895938e+002 1.991716973288e+002 1.986145481369e+002 1.986142635516e+002 1.999999700266e+002 1.991668543757e+002 1.999998748709e+002 1.999995241816e+002 1.999967381166e+002 1.999999999297e+002 1.999999999303e+002 1.960211507440e+002 1.958693774960e+002 1.999999998850e+002 1.958910696205e+002 1.999999997573e+002 1.999999997672e+002 1.959900735929e+002 1.999999998581e+002 1.962471483933e+002 1.959196067031e+002 1.995248027464e+002 1.998006601935e+002 1.976068502904e+002 1.963820052319e+002 1.994948737212e+002 1.971530774697e+002 1.971257605321e+002 1.998149923517e+002 1.967877885472e+002 1.995986575646e+002 1.997288947730e+002 1.967051526055e+002 1.989385806249e+002 1.999990637430e+002 1.999997384549e+002 1.999999340560e+002 1.999999932287e+002 1.999999986521e+002 1.999982578316e+002 1.998528181721e+002 1.999354951401e+002 1.999742038367e+002 1.999905865633e+002 1.996370658979e+002 1.971512631941e+002 1.997345579358e+002 1.996276454993e+002 1.999999993781e+002 1.999999998472e+002 1.979115962526e+002 1.993789462725e+002 1.960049781181e+002 1.957695408491e+002 1.999999998985e+002 1.967552643965e+002 1.999954889038e+002 1.999868423814e+002 1.999649971287e+002 1.999150071038e+002 1.999988190093e+002 1.999986067885e+002 1.999962249616e+002 1.999996721631e+002 1.999999160284e+002 1.994498545542e+002 1.999999803982e+002 1.990276845288e+002 1.999999958296e+002 1.984208393876e+002 1.999999989552e+002 1.999999957999e+002 1.999999804766e+002 1.999999165451e+002 1.999996739497e+002 1.984200513395e+002 1.990255162968e+002 1.999153904291e+002 1.999649616930e+002 1.999868276597e+002 1.999999989489e+002 1.977677527710e+002 1.998334882552e+002 1.999999990954e+002 1.999999997842e+002 1.999999997843e+002 1.978229063915e+002 1.975054508042e+002 1.962290601493e+002 1.997185525058e+002 1.999999981477e+002 1.999999908787e+002 1.999999484862e+002 1.999997923729e+002 1.999992252822e+002 1.980479589858e+002 1.988413248306e+002 1.993248776837e+002 1.999922394004e+002 1.999450217327e+002 1.998725031295e+002 1.999780152405e+002 1.999979098683e+002 1.999999995366e+002 1.999999999097e+002 1.999999999097e+002 1.999999950991e+002 1.999999093139e+002 1.999996477934e+002 1.990558878531e+002 1.999220867200e+002 1.999682136908e+002 1.999881640217e+002 1.956930519457e+002 1.996520889553e+002 1.999987587454e+002 1.999986766438e+002 1.998259874610e+002 1.999999999346e+002 1.966776653930e+002 1.994155629769e+002 1.998454793690e+002 1.999993050803e+002 1.999998120954e+002 1.999999536994e+002 1.999999978902e+002 1.999999896924e+002 1.992952517177e+002 1.987980061100e+002 1.981092519537e+002 1.999799059432e+002 1.999928386179e+002 1.998797812999e+002 1.999485616545e+002 1.999999978893e+002 1.999999896906e+002 1.999485439710e+002 1.999799445572e+002 1.999999540459e+002 1.999928432721e+002 1.999998134096e+002 1.999993107227e+002 1.987951326833e+002 1.999976856194e+002 1.999976709437e+002 1.970725402319e+002 1.995363227331e+002 1.970201653797e+002 1.998588870475e+002 1.996940284308e+002 1.999999997141e+002 1.999999997071e+002 1.997677834126e+002 1.997810988725e+002 1.997077298291e+002 1.999989101896e+002 1.999952065866e+002 1.999964464909e+002 1.999984936669e+002 1.999894290014e+002 1.999713262599e+002 1.999290179984e+002 1.999995684306e+002 1.985653973400e+002 1.991319181719e+002 1.999999942604e+002 1.999999731689e+002 1.999998872793e+002 1.999999941804e+002 1.985648800329e+002 1.999999731739e+002 1.991318163094e+002 1.999290273063e+002 1.999713314925e+002 1.999892059265e+002 1.999998872942e+002 1.999995684800e+002 1.957695462171e+002 1.963678641504e+002 1.999999999125e+002 1.957231400175e+002 1.999958920764e+002 1.999958433879e+002 1.984728220065e+002 1.984716932743e+002 1.999999781459e+002 1.999999781122e+002 1.999999998698e+002 1.967913159225e+002 1.960919023497e+002 1.977739272811e+002 1.969295881785e+002 1.999999999350e+002 1.966551070551e+002 1.999999999353e+002 1.964509421748e+002 1.965911168928e+002 1.999999992566e+002 1.999999992598e+002 1.999996350797e+002 1.999999058359e+002 1.990692406196e+002 1.999877855939e+002 1.999200372425e+002 1.999672835374e+002 1.999999952913e+002 1.973570389633e+002 1.973783694276e+002 1.963262371330e+002 1.998046837168e+002 1.995157779768e+002 1.963295656470e+002 1.975933157680e+002 1.981356516172e+002 1.995903835267e+002 1.974757148497e+002 1.999999995823e+002 1.999999995825e+002 1.995613087531e+002 1.997884904886e+002 1.999999994358e+002 1.994400167079e+002 1.997924562546e+002 1.997655854901e+002 1.999999922805e+002 1.979567402949e+002 1.999999984630e+002 1.999332934837e+002 1.999731640208e+002 1.999901959784e+002 1.999983814113e+002 1.989091411482e+002 1.999999387530e+002 1.993703751511e+002 1.999997558828e+002 1.999989872257e+002 1.999999990718e+002 1.971307770379e+002 1.997322603649e+002 1.996608326072e+002 1.994743625794e+002 1.966031114291e+002 1.999999999357e+002 1.969945760191e+002 1.999999999357e+002 1.970948576609e+002 1.959300381117e+002 1.977075579262e+002 1.996815451356e+002 1.995916283613e+002 1.999999998725e+002 1.992722486154e+002 1.998837155344e+002 1.973683250158e+002 1.998074676553e+002 1.968264470922e+002 1.999994527529e+002 1.999998546090e+002 1.999999647999e+002 1.992154002716e+002 1.986830588380e+002 1.999999704648e+002 1.999999965687e+002 1.999998766977e+002 1.999999836953e+002 1.999995309499e+002 1.986073904131e+002 1.991619005502e+002 1.983358421347e+002 1.999059800881e+002 1.999851447289e+002 1.999608451161e+002 1.999948520575e+002 1.999999970620e+002 1.999999859092e+002 1.982634204514e+002 1.999971167246e+002 1.998963603291e+002 1.999563782044e+002 1.999832394946e+002 1.999941249129e+002 1.999967048547e+002 1.999976715568e+002 1.999928325866e+002 1.999485380929e+002 1.999799034530e+002 1.998797555693e+002 1.999999978917e+002 1.999999896930e+002 1.999999541753e+002 1.999993098506e+002 1.999998139116e+002 1.981108871056e+002 1.987938013913e+002 1.992931578196e+002 1.995115165213e+002 1.975524331261e+002 1.999999998676e+002 1.959588553794e+002 1.999966399599e+002 1.999949352245e+002 1.999853315565e+002 1.999613591481e+002 1.999070794144e+002 1.999999831256e+002 1.999999964475e+002 1.983507403216e+002 1.999999710649e+002 1.999998786451e+002 1.999995369350e+002 1.985974590384e+002 1.991568975451e+002 1.996757155611e+002 1.999999995949e+002 1.996494654882e+002 1.999999996630e+002 1.999976183823e+002 1.999977050618e+002 1.999930685205e+002 1.999804901185e+002 1.999499443208e+002 1.998827062872e+002 1.999999978244e+002 1.999999893843e+002 1.999999522795e+002 1.999998067104e+002 1.999993259151e+002 1.988106463914e+002 1.999992991321e+002 1.999494225824e+002 1.999795239677e+002 1.999929820107e+002 1.999998110180e+002 1.999999534143e+002 1.992968287668e+002 1.999999897099e+002 1.988003318834e+002 1.999999978952e+002 1.981078802724e+002 1.969456679053e+002 1.999999876303e+002 1.982002442340e+002 1.999999974414e+002 1.999534481332e+002 1.999936484508e+002 1.999821397322e+002 1.998901090656e+002 1.987292034940e+002 1.999999607263e+002 1.992476025556e+002 1.999998389385e+002 1.999993961465e+002 1.999973634008e+002 1.961071717441e+002 1.999999999354e+002 1.969625347974e+002 1.999999997480e+002 1.999999998413e+002 1.999999998412e+002 1.996418478753e+002 1.997260986533e+002 1.973320739279e+002 1.981261018060e+002 1.999999993462e+002 1.960546204483e+002 1.999999995813e+002 1.999999995785e+002 1.976678106393e+002 1.999989807504e+002 1.999997174350e+002 1.994095912816e+002 1.999999283871e+002 1.989695636676e+002 1.999902963674e+002 1.999731865439e+002 1.999338649014e+002 1.999983763439e+002 1.999999987330e+002 1.978515609030e+002 1.999999936395e+002 1.994728245174e+002 1.998243842065e+002 1.996185137221e+002 1.965575027418e+002 1.962794859066e+002 1.999999999235e+002 1.956666603766e+002 1.999999999235e+002 1.955489245822e+002 1.998846520208e+002 1.992738941155e+002 1.998452805913e+002 1.966756131226e+002 1.999999988450e+002 1.957500832877e+002 1.995695660023e+002 1.997540422649e+002 1.996125122457e+002 1.972933365598e+002 1.965717136482e+002 1.969786023791e+002 1.993574877527e+002 1.965678615799e+002 1.971157470683e+002 1.996344955392e+002 1.961660792899e+002 1.964283447175e+002 1.997035573704e+002 1.995464309715e+002 1.997593806453e+002 1.995861377673e+002 1.999999998071e+002 1.959312755731e+002 1.979261586225e+002 1.999979543226e+002 1.999984795103e+002 1.999999988379e+002 1.999999941493e+002 1.999999982812e+002 1.999999914120e+002 1.999999288556e+002 1.999997191435e+002 1.989680270041e+002 1.999992085585e+002 1.999989211216e+002 1.998660718482e+002 1.998429122648e+002 1.999420676628e+002 1.999296458160e+002 1.999716075954e+002 1.999770944597e+002 1.999917279751e+002 1.999895386042e+002 1.957108074061e+002 1.999999999030e+002 1.999999999025e+002 1.999999999222e+002 1.999999999222e+002 1.956285444580e+002 1.999999999170e+002 1.999943214310e+002 1.999837521475e+002 1.999575877888e+002 1.998989405391e+002 1.999970169570e+002 1.999981903605e+002 1.999990986624e+002 1.999997515541e+002 1.993761520146e+002 1.999999375919e+002 1.989169466957e+002 1.999999857103e+002 1.982708470697e+002 1.999999970186e+002 1.999999970186e+002 1.999999857106e+002 1.999999985179e+002 1.999999375140e+002 1.999997512312e+0