<?xml version="1.0"?>
<VTKFile type="UnstructuredGrid" version="0.1" byte_order="LittleEndian">
  <UnstructuredGrid>
    <Piece NumberOfPoints="2604" NumberOfCells="4910">
      <Points>
        <DataArray type="Float64" NumberOfComponents="3" format="ascii">
          0.000000000000e+000 0.000000000000e+000 0.000000000000e+000
          2.000000000000e+002 0.000000000000e+000 0.000000000000e+000
          2.000000000000e+002 2.000000000000e+001 0.000000000000e+000
          0.000000000000e+000 2.000000000000e+001 0.000000000000e+000
          1.492537313427e+000 0.000000000000e+000 0.000000000000e+000
          2.985074626854e+000 0.000000000000e+000 0.000000000000e+000
          4.477611940281e+000 0.000000000000e+000 0.000000000000e+000
          5.970149253708e+000 0.000000000000e+000 0.000000000000e+000
          7.462686567135e+000 0.000000000000e+000 0.000000000000e+000
          8.955223880561e+000 0.000000000000e+000 0.000000000000e+000
          1.044776119399e+001 0.000000000000e+000 0.000000000000e+000
          1.194029850741e+001 0.000000000000e+000 0.000000000000e+000
          1.343283582084e+001 0.000000000000e+000 0.000000000000e+000
          1.492537313427e+001 0.000000000000e+000 0.000000000000e+000
          1.641791044770e+001 0.000000000000e+000 0.000000000000e+000
          1.791044776112e+001 0.000000000000e+000 0.000000000000e+000
          1.940298507455e+001 0.000000000000e+000 0.000000000000e+000
          2.089552238798e+001 0.000000000000e+000 0.000000000000e+000
          2.238805970141e+001 0.000000000000e+000 0.000000000000e+000
          2.388059701484e+001 0.000000000000e+000 0.000000000000e+000
          2.537313432826e+001 0.000000000000e+000 0.000000000000e+000
          2.686567164169e+001 0.000000000000e+000 0.000000000000e+000
          2.835820895511e+001 0.000000000000e+000 0.000000000000e+000
          2.985074626854e+001 0.000000000000e+000 0.000000000000e+000
          3.134328358196e+001 0.000000000000e+000 0.000000000000e+000
          3.283582089539e+001 0.000000000000e+000 0.000000000000e+000
          3.432835820881e+001 0.000000000000e+000 0.000000000000e+000
          3.582089552224e+001 0.000000000000e+000 0.000000000000e+000
          3.731343283566e+001 0.000000000000e+000 0.000000000000e+000
          3.880597014909e+001 0.000000000000e+000 0.000000000000e+000
          4.029850746251e+001 0.000000000000e+000 0.000000000000e+000
          4.179104477594e+001 0.000000000000e+000 0.000000000000e+000
          4.328358208936e+001 0.000000000000e+000 0.000000000000e+000
          4.477611940279e+001 0.000000000000e+000 0.000000000000e+000
          4.626865671621e+001 0.000000000000e+000 0.000000000000e+000
          4.776119402964e+001 0.000000000000e+000 0.000000000000e+000
          4.925373134306e+001 0.000000000000e+000 0.000000000000e+000
          5.074626865649e+001 0.000000000000e+000 0.000000000000e+000
          5.223880596991e+001 0.000000000000e+000 0.000000000000e+000
          5.373134328334e+001 0.000000000000e+000 0.000000000000e+000
          5.522388059676e+001 0.000000000000e+000 0.000000000000e+000
          5.671641791019e+001 0.000000000000e+000 0.000000000000e+000
          5.820895522361e+001 0.000000000000e+000 0.000000000000e+000
          5.970149253704e+001 0.000000000000e+000 0.000000000000e+000
          6.119402985046e+001 0.000000000000e+000 0.000000000000e+000
          6.268656716389e+001 0.000000000000e+000 0.000000000000e+000
          6.417910447732e+001 0.000000000000e+000 0.000000000000e+000
          6.567164179075e+001 0.000000000000e+000 0.000000000000e+000
          6.716417910418e+001 0.000000000000e+000 0.000000000000e+000
          6.865671641761e+001 0.000000000000e+000 0.000000000000e+000
          7.014925373104e+001 0.000000000000e+000 0.000000000000e+000
          7.164179104447e+001 0.000000000000e+000 0.000000000000e+000
          7.313432835790e+001 0.000000000000e+000 0.000000000000e+000
          7.462686567133e+001 0.000000000000e+000 0.000000000000e+000
          7.611940298476e+001 0.000000000000e+000 0.000000000000e+000
          7.761194029819e+001 0.000000000000e+000 0.000000000000e+000
          7.910447761162e+001 0.000000000000e+000 0.000000000000e+000
          8.059701492505e+001 0.000000000000e+000 0.000000000000e+000
          8.208955223848e+001 0.000000000000e+000 0.000000000000e+000
          8.358208955191e+001 0.000000000000e+000 0.000000000000e+000
          8.507462686534e+001 0.000000000000e+000 0.000000000000e+000
          8.656716417877e+001 0.000000000000e+000 0.000000000000e+000
          8.805970149220e+001 0.000000000000e+000 0.000000000000e+000
          8.955223880563e+001 0.000000000000e+000 0.000000000000e+000
          9.104477611907e+001 0.000000000000e+000 0.000000000000e+000
          9.253731343250e+001 0.000000000000e+000 0.000000000000e+000
          9.402985074593e+001 0.000000000000e+000 0.000000000000e+000
          9.552238805936e+001 0.000000000000e+000 0.000000000000e+000
          9.701492537279e+001 0.000000000000e+000 0.000000000000e+000
          9.850746268622e+001 0.000000000000e+000 0.000000000000e+000
          9.999999999965e+001 0.000000000000e+000 0.000000000000e+000
          1.014925373131e+002 0.000000000000e+000 0.000000000000e+000
          1.029850746265e+002 0.000000000000e+000 0.000000000000e+000
          1.044776119399e+002 0.000000000000e+000 0.000000000000e+000
          1.059701492534e+002 0.000000000000e+000 0.000000000000e+000
          1.074626865668e+002 0.000000000000e+000 0.000000000000e+000
          1.089552238802e+002 0.000000000000e+000 0.000000000000e+000
          1.104477611937e+002 0.000000000000e+000 0.000000000000e+000
          1.119402985071e+002 0.000000000000e+000 0.000000000000e+000
          1.134328358205e+002 0.000000000000e+000 0.000000000000e+000
          1.149253731340e+002 0.000000000000e+000 0.000000000000e+000
          1.164179104474e+002 0.000000000000e+000 0.000000000000e+000
          1.179104477608e+002 0.000000000000e+000 0.000000000000e+000
          1.194029850742e+002 0.000000000000e+000 0.000000000000e+000
          1.208955223877e+002 0.000000000000e+000 0.000000000000e+000
          1.223880597011e+002 0.000000000000e+000 0.000000000000e+000
          1.238805970145e+002 0.000000000000e+000 0.000000000000e+000
          1.253731343280e+002 0.000000000000e+000 0.000000000000e+000
          1.268656716414e+002 0.000000000000e+000 0.000000000000e+000
          1.283582089548e+002 0.000000000000e+000 0.000000000000e+000
          1.298507462683e+002 0.000000000000e+000 0.000000000000e+000
          1.313432835817e+002 0.000000000000e+000 0.000000000000e+000
          1.328358208952e+002 0.000000000000e+000 0.000000000000e+000
          1.343283582086e+002 0.000000000000e+000 0.000000000000e+000
          1.358208955220e+002 0.000000000000e+000 0.000000000000e+000
          1.373134328355e+002 0.000000000000e+000 0.000000000000e+000
          1.388059701489e+002 0.000000000000e+000 0.000000000000e+000
          1.402985074624e+002 0.000000000000e+000 0.000000000000e+000
          1.417910447758e+002 0.000000000000e+000 0.000000000000e+000
          1.432835820892e+002 0.000000000000e+000 0.000000000000e+000
          1.447761194027e+002 0.000000000000e+000 0.000000000000e+000
          1.462686567161e+002 0.000000000000e+000 0.000000000000e+000
          1.477611940296e+002 0.000000000000e+000 0.000000000000e+000
          1.492537313430e+002 0.000000000000e+000 0.000000000000e+000
          1.507462686564e+002 0.000000000000e+000 0.000000000000e+000
          1.522388059699e+002 0.000000000000e+000 0.000000000000e+000
          1.537313432833e+002 0.000000000000e+000 0.000000000000e+000
          1.552238805968e+002 0.000000000000e+000 0.000000000000e+000
          1.567164179102e+002 0.000000000000e+000 0.000000000000e+000
          1.582089552237e+002 0.000000000000e+000 0.000000000000e+000
          1.597014925371e+002 0.000000000000e+000 0.000000000000e+000
          1.611940298505e+002 0.000000000000e+000 0.000000000000e+000
          1.626865671640e+002 0.000000000000e+000 0.000000000000e+000
          1.641791044774e+002 0.000000000000e+000 0.000000000000e+000
          1.656716417909e+002 0.000000000000e+000 0.000000000000e+000
          1.671641791043e+002 0.000000000000e+000 0.000000000000e+000
          1.686567164177e+002 0.000000000000e+000 0.000000000000e+000
          1.701492537312e+002 0.000000000000e+000 0.000000000000e+000
          1.716417910446e+002 0.000000000000e+000 0.000000000000e+000
          1.731343283581e+002 0.000000000000e+000 0.000000000000e+000
          1.746268656715e+002 0.000000000000e+000 0.000000000000e+000
          1.761194029849e+002 0.000000000000e+000 0.000000000000e+000
          1.776119402984e+002 0.000000000000e+000 0.000000000000e+000
          1.791044776118e+002 0.000000000000e+000 0.000000000000e+000
          1.805970149253e+002 0.000000000000e+000 0.000000000000e+000
          1.820895522387e+002 0.000000000000e+000 0.000000000000e+000
          1.835820895521e+002 0.000000000000e+000 0.000000000000e+000
          1.850746268656e+002 0.000000000000e+000 0.000000000000e+000
          1.865671641790e+002 0.000000000000e+000 0.000000000000e+000
          1.880597014925e+002 0.000000000000e+000 0.000000000000e+000
          1.895522388059e+002 0.000000000000e+000 0.000000000000e+000
          1.910447761194e+002 0.000000000000e+000 0.000000000000e+000
          1.925373134328e+002 0.000000000000e+000 0.000000000000e+000
          1.940298507462e+002 0.000000000000e+000 0.000000000000e+000
          1.955223880597e+002 0.000000000000e+000 0.000000000000e+000
          1.970149253731e+002 0.000000000000e+000 0.000000000000e+000
          1.985074626866e+002 0.000000000000e+000 0.000000000000e+000
          2.000000000000e+002 1.428571428570e+000 0.000000000000e+000
          2.000000000000e+002 2.857142857140e+000 0.000000000000e+000
[...]
      <PointData Scalars="MEAN_PRESSURE">
        <DataArray type="Float64" Name="MEAN_PRESSURE" format="ascii">
          2.000000000000e+002 1.997324697108e+002 1.997324682846e+002 2.000000000000e+002 1.993168553265e+002 1.980735368960e+002 1.973187892029e+002 1.968694622230e+002 1.966341609268e+002 1.965365594964e+002 1.965136927126e+002 1.965325617213e+002 1.965702154462e+002 1.966150826878e+002 1.966616445581e+002 1.967078353449e+002 1.967531612427e+002 1.967977002081e+002 1.968417131932e+002 1.968854176798e+002 1.969289652207e+002 1.969724165101e+002 1.970158198547e+002 1.970591787338e+002 1.971024825482e+002 1.971457147055e+002 1.971888633798e+002 1.972319104238e+002 1.972748358921e+002 1.973176264345e+002 1.973602666716e+002 1.974027467165e+002 1.974450474661e+002 1.974871593510e+002 1.975290694426e+002 1.975707632819e+002 1.976122341494e+002 1.976534641923e+002 1.976944470917e+002 1.977351749456e+002 1.977756292102e+002 1.978157956647e+002 1.978556774078e+002 1.978952564545e+002 1.979345281674e+002 1.979734806435e+002 1.980121115373e+002 1.980503933320e+002 1.980883443528e+002 1.981259349466e+002 1.981631621057e+002 1.982000226884e+002 1.982365167814e+002 1.982726079057e+002 1.983083195374e+002 1.983436362294e+002 1.983785562441e+002 1.984130588754e+002 1.984471449383e+002 1.984808316460e+002 1.985140719067e+002 1.985468851653e+002 1.985792646877e+002 1.986112144261e+002 1.986427180705e+002 1.986737755501e+002 1.987043849062e+002 1.987345382344e+002 1.987642408946e+002 1.987934796577e+002 1.988222673729e+002 1.988505830230e+002 1.988784400032e+002 1.989058284886e+002 1.989327470933e+002 1.989592017181e+002 1.989851808723e+002 1.990106982075e+002 1.990357403562e+002 1.990603132145e+002 1.990844077920e+002 1.991080391005e+002 1.991311944422e+002 1.991538837019e+002 1.991760999610e+002 1.991978464155e+002 1.992191271872e+002 1.992399404791e+002 1.992602877572e+002 1.992801714566e+002 1.992995930039e+002 1.993185549246e+002 1.993370591932e+002 1.993551043496e+002 1.993726903461e+002 1.993898294696e+002 1.994065130108e+002 1.994227489726e+002 1.994385403012e+002 1.994538908631e+002 1.994687985905e+002 1.994832638541e+002 1.994972987843e+002 1.995108953178e+002 1.995240615919e+002 1.995368008753e+002 1.995491172466e+002 1.995610089912e+002 1.995724766797e+002 1.995835320857e+002 1.995941675174e+002 1.996043905982e+002 1.996142054071e+002 1.996236167139e+002 1.996326201451e+002 1.996412172154e+002 1.996494196497e+002 1.996572194928e+002 1.996646237384e+002 1.996716355642e+002 1.996782595557e+002 1.996844937422e+002 1.996903368877e+002 1.996957940724e+002 1.997008664801e+002 1.997055528609e+002 1.997098626486e+002 1.997137969279e+002 1.997173468169e+002 1.997205274613e+002 1.997233370190e+002 1.997257522258e+002 1.997277992347e+002 1.997294744092e+002 1.997307975188e+002 1.997316910607e+002 1.997322660530e+002 1.997324498153e+002 1.997324312884e+002 1.997324715228e+002 1.997324634509e+002 1.997324594970e+002 1.997324522359e+002 1.997324474720e+002 1.997324507765e+002 1.997324511582e+002 1.997324420730e+002 1.997324671861e+002 1.997324290168e+002 1.997324482396e+002 1.997322647692e+002 1.997316900429e+002 1.997307966382e+002 1.997294735394e+002 1.997277985657e+002 1.997257527438e+002 1.997233386901e+002 1.997205293733e+002 1.997173486162e+002 1.997137986148e+002 1.997098630751e+002 1.997055535947e+002 1.997008662766e+002 1.996957928610e+002 1.996903359884e+002 1.996844919039e+002 1.996782572421e+002 1.996716406443e+002 1.996646279348e+002 1.996572205693e+002 1.996494194137e+002 1.996412185546e+002 1.996326167808e+002 1.996236162196e+002 1.996142084500e+002 1.996043947024e+002 1.995941675130e+002 1.995835308350e+002 1.995724743125e+002 1.995610076311e+002 1.995491153487e+002 1.995368016960e+002 1.995240631237e+002 1.995108924072e+002 1.994972968987e+002 1.994832619854e+002 1.994687981006e+002 1.994538896518e+002 1.994385414537e+002 1.994227502776e+002 1.994065095238e+002 1.993898274471e+002 1.993726889398e+002 1.993551045174e+002 1.993370588091e+002 1.993185520814e+002 1.992995941940e+002 1.992801722836e+002 1.992602881397e+002 1.992399404544e+002 1.992191285815e+002 1.991978513276e+002 1.991761039945e+002 1.991538834190e+002 1.991311992337e+002 1.991080393385e+002 1.990844088667e+002 1.990603087691e+002 1.990357421913e+002 1.990106978551e+002 1.989851861308e+002 1.989592039064e+002 1.989327488255e+002 1.989058255657e+002 1.988784369260e+002 1.988505849660e+002 1.988222656863e+002 1.987934834070e+002 1.987642390696e+002 1.987345381940e+002 1.987043813796e+002 1.986737734859e+002 1.986427186998e+002 1.986112152283e+002 1.985792692257e+002 1.985468835669e+002 1.985140654747e+002 1.984808174565e+002 1.984471458527e+002 1.984130581936e+002 1.983785540897e+002 1.983436409365e+002 1.983083231446e+002 1.982726101831e+002 1.982365060828e+002 1.982000204980e+002 1.981631598165e+002 1.981259232710e+002 1.980883363423e+002 1.980503947559e+002 1.980121041989e+002 1.979734815390e+002 1.979345222536e+002 1.978952451430e+002 1.978556621719e+002 1.978157751638e+002 1.977755966059e+002 1.977351379048e+002 1.976944061901e+002 1.976534103451e+002 1.976121662053e+002 1.975706778961e+002 1.975289590315e+002 1.974870204038e+002 1.974448731462e+002 1.974025254997e+002 1.973599875315e+002 1.973172732580e+002 1.972743879661e+002 1.972313436957e+002 1.971881496445e+002 1.971448146108e+002 1.971013428697e+002 1.970577381527e+002 1.970139990987e+002 1.969701127191e+002 1.969260455700e+002 1.968817283771e+002 1.968370499610e+002 1.967917939485e+002 1.967457180568e+002 1.966984617462e+002 1.966498649614e+002 1.966003577231e+002 1.965520996528e+002 1.965107424295e+002 1.964884580591e+002 1.965053229067e+002 1.966041864576e+002 1.968422037466e+002 1.972890216362e+002 1.980531019441e+002 1.992934384129e+002 2.000000000000e+002 2.000000000000e+002 2.000000000000e+002 2.000000000000e+002 2.000000000000e+002 2.000000000000e+002 2.000000000000e+002 2.000000000000e+002 2.000000000000e+002 2.000000000000e+002 2.000000000000e+002 2.000000000000e+002 2.000000000000e+002 1.997240733415e+002 1.964950577323e+002 1.996985378623e+002 1.996535160694e+002 1.995882285350e+002 1.995032922528e+002 1.993971734718e+002 1.969930741311e+002 1.992702775111e+002 1.972987193410e+002 1.975940807876e+002 1.978804191662e+002 1.982874662042e+002 1.985305187893e+002 1.987494343383e+002 1.989460221096e+002 1.991196634740e+002 1.967304936098e+002 1.980883424012e+002 1.991978403118e+002 1.991968542631e+002 1.990357412419e+002 1.988505837256e+002 1.986427196239e+002 1.984130609874e+002 1.996792326566e+002 1.996250084533e+002 1.995505253013e+002 1.984130529331e+002 1.986370967343e+002 1.988528489694e+002 1.990312780356e+002 1.994556556106e+002 1.993370502320e+002 1.971433364122e+002 1.974400321959e+002 1.977397327611e+002 1.993379064870e+002 1.994540344450e+002 1.995492311204e+002 1.996236062155e+002 1.996782497636e+002 1.977347272008e+002 1.974444805381e+002 1.971450153193e+002 1.997134041012e+002 1.997131680560e+002 1.980065988814e+002 1.981730578403e+002 1.966041261853e+002 1.968439920483e+002 1.997295295561e+002 1.968552025003e+002 1.997295759141e+002 1.968447694617e+002 1.965790523534e+002 1.968789875055e+002 1.979646359475e+002 1.982052531487e+002 1.996983829312e+002 1.991196675366e+002 1.996533624062e+002 1.989460336369e+002 1.987494464695e+002 1.985305288483e+002 1.982980916390e+002 1.992700857738e+002 1.995890806727e+002 1.995053524222e+002 1.993997058406e+002 1.972953963877e+002 1.975878178762e+002 1.992704699532e+002 1.993982175516e+002 1.995041429666e+002 1.995888940878e+002 1.985304650785e+002 1.987493869921e+002 1.989459770132e+002 1.996533623938e+002 1.991200832336e+002 1.996983765463e+002 1.978754966347e+002 1.975914579271e+002 1.972959049397e+002 1.969923575549e+002 1.997230157892e+002 1.997231906013e+002 1.964860505909e+002 1.970164435940e+002 1.983155535989e+002 1.978450912798e+002 1.997309242681e+002 1.973698602382e+002 1.967350153469e+002 1.965104464387e+002 1.967278049352e+002 1.980666287142e+002 1.979866839404e+002 1.981887970952e+002 1.965829898070e+002 1.968506166327e+002 1.980891939548e+002 1.997162675704e+002 1.995598592470e+002 1.996145425785e+002 1.994673562049e+002 1.996718699795e+002 1.993533368116e+002 1.990561933916e+002 1.986685669372e+002 1.984414289928e+002 1.988757179220e+002 1.971869041025e+002 1.976984001539e+002 1.974067721034e+002 1.991782149085e+002 1.980883384841e+002 1.997315179031e+002 1.979030040580e+002 1.997315178885e+002 1.978676955962e+002 1.990690207899e+002 1.988883307697e+002 1.986848253685e+002 1.984592980536e+002 1.993117695009e+002 1.991672646295e+002 1.992266540186e+002 1.994328971933e+002 1.977900785349e+002 1.995322544702e+002 1.975021379066e+002 1.996107071250e+002 1.972037503362e+002 1.996691451996e+002 1.996688789516e+002 1.996870547268e+002 1.996103298317e+002 1.996359221430e+002 1.995310738673e+002 1.995647250266e+002 1.994314311996e+002 1.994734822539e+002 1.972101601637e+002 1.993606807836e+002 1.993117158638e+002 1.975061887570e+002 1.973890735518e+002 1.984594821127e+002 1.986860782460e+002 1.988905325620e+002 1.986008950875e+002 1.988128540368e+002 1.990679413554e+002 1.990024658576e+002 1.976915013298e+002 1.992267087456e+002 1.991714517767e+002 1.996866367607e+002 1.970857555331e+002 1.996344184371e+002 1.973935882091e+002 1.995634524551e+002 1.976857861725e+002 1.994718745588e+002 1.983603919033e+002 1.985965600121e+002 1.988090704421e+002 1.989985523279e+002 1.993588393722e+002 1.967098818486e+002 1.997080971862e+002 1.997079054640e+002 1.982122344064e+002 1.979563314119e+002 1.969022970902e+002 1.992248515389e+002 1.988136957447e+002 1.990036403428e+002 1.986023699635e+002 1.983610991718e+002 1.970890118075e+002 1.974986012492e+002 1.996862678873e+002 1.977876447052e+002 1.996350046670e+002 1.995333456227e+002 1.993134016459e+002 1.994342513224e+002 1.971014348504e+002 1.997174765939e+002 1.997174758937e+002 1.981472498135e+002 1.965526960012e+002 1.997085034783e+002 1.992417967155e+002 1.992981502352e+002 1.994215230181e+002 1.978165038716e+002 1.995230700072e+002 1.975321915306e+002 1.985768647305e+002 1.987913108882e+002 1.989832602903e+002 1.996904443722e+002 1.970574042852e+002 1.996418589772e+002 1.968207844106e+002 1.983466115782e+002 1.997277132366e+002 1.997274842961e+002 1.997050001836e+002 1.983829814883e+002 1.977706141691e+002 1.982407733045e+002 1.979287235379e+002 1.965948350315e+002 1.969337758827e+002 1.965168489305e+002 1.966357805725e+002 1.969344908560e+002 1.990832771197e+002 1.989049686752e+002 1.987034184349e+002 1.984797580156e+002 1.996049128494e+002 1.972293045191e+002 1.996650141598e+002 1.991529644132e+002 1.993722240945e+002 1.996039926504e+002 1.994838768752e+002 1.996643437748e+002 1.995729577606e+002 1.990861223643e+002 1.989048946706e+002 1.987056461838e+002 1.984822104020e+002 1.972335471198e+002 1.976546226446e+002 1.973584061211e+002 1.973582870393e+002 1.995729493590e+002 1.976517031899e+002 1.994838553419e+002 1.993734102887e+002 1.991529421088e+002 1.997316127143e+002 1.997316677430e+002 1.980034342542e+002 1.978803551533e+002 1.997281319296e+002 1.966396758939e+002 1.997205014021e+002 1.997210205988e+002 1.965174204220e+002 1.997262894273e+002 1.965070025967e+002 1.966771904462e+002 1.979187139667e+002 1.982518414750e+002 1.969589252886e+002 1.965417774785e+002 1.978920216339e+002 1.968010802419e+002 1.967933453671e+002 1.982770358168e+002 1.966768548003e+002 1.979901855492e+002 1.981431924787e+002 1.966447489619e+002 1.975193170056e+002 1.993050963276e+002 1.994264706683e+002 1.995270689292e+002 1.996402710114e+002 1.996897500041e+002 1.992340310831e+002 1.983510442453e+002 1.985858432630e+002 1.987994108839e+002 1.989904451140e+002 1.980311697991e+002 1.968011064005e+002 1.981509345540e+002 1.980207417698e+002 1.997061350116e+002 1.997255921076e+002 1.970695184637e+002 1.977976334524e+002 1.965536515045e+002 1.967558277462e+002 1.997291219443e+002 1.966642164933e+002 1.991069258727e+002 1.989314786784e+002 1.987331182509e+002 1.985125005459e+002 1.992796857061e+002 1.992607650028e+002 1.991326214365e+002 1.994072711480e+002 1.995115097258e+002 1.978537913449e+002 1.995946444914e+002 1.975687198567e+002 1.996575642353e+002 1.972723830239e+002 1.996956626754e+002 1.996572991033e+002 1.995948132541e+002 1.995119214026e+002 1.994077759737e+002 1.972721216303e+002 1.975675073128e+002 1.985137082120e+002 1.987328825692e+002 1.989312690466e+002 1.996955377587e+002 1.970161220596e+002 1.983116984072e+002 1.996987619130e+002 1.997219226817e+002 1.997219251817e+002 1.970367987877e+002 1.969231840180e+002 1.964942703202e+002 1.981293602814e+002 1.996817605997e+002 1.996286565744e+002 1.995423293900e+002 1.994454222549e+002 1.993252057215e+002 1.971211114830e+002 1.974683450211e+002 1.977576318795e+002 1.990227004049e+002 1.986262962773e+002 1.983953531359e+002 1.988324260422e+002 1.992115876216e+002 1.997112539819e+002 1.997299791879e+002 1.997299803090e+002 1.996520270975e+002 1.995063150700e+002 1.994008877000e+002 1.975848621275e+002 1.985361000615e+002 1.987544877745e+002 1.989505211521e+002 1.969791718930e+002 1.980479888077e+002 1.992739875624e+002 1.992666724370e+002 1.982972744294e+002 1.997320400356e+002 1.986054406610e+002 1.978259920434e+002 1.983356076159e+002 1.993363700179e+002 1.994533189571e+002 1.995486582205e+002 1.996782522760e+002 1.996236300165e+002 1.977366419222e+002 1.974464449691e+002 1.971448415378e+002 1.988505814954e+002 1.990357397654e+002 1.984130535258e+002 1.986427153934e+002 1.996782482030e+002 1.996236099367e+002 1.986427056251e+002 1.988510598565e+002 1.995491050808e+002 1.990359577562e+002 1.994538792169e+002 1.993372192519e+002 1.974450371814e+002 1.991986407023e+002 1.991978390052e+002 1.967737774702e+002 1.979294445311e+002 1.967579917603e+002 1.983643281506e+002 1.980978217003e+002 1.997184230906e+002 1.997181013823e+002 1.981991322891e+002 1.982198787090e+002 1.981151678945e+002 1.992886115966e+002 1.990978937186e+002 1.991410478971e+002 1.992515595822e+002 1.989704720922e+002 1.987769169349e+002 1.985609144093e+002 1.993824831588e+002 1.973360425572e+002 1.976300606042e+002 1.996464565510e+002 1.995788061026e+002 1.994912895916e+002 1.996459266144e+002 1.973357422186e+002 1.995788096373e+002 1.976300020048e+002 1.985609183099e+002 1.987769206911e+002 1.989668529943e+002 1.994912921960e+002 1.993824846374e+002 1.971081211109e+002 1.965290914473e+002 1.997302028903e+002 1.970614290607e+002 1.991205145624e+002 1.991188198932e+002 1.972949243527e+002 1.972944074506e+002 1.995892798362e+002 1.995891909078e+002 1.997270737409e+002 1.966758609779e+002 1.965328867203e+002 1.970187358970e+002 1.967239807375e+002 1.997320749827e+002 1.987146607703e+002 1.997320971585e+002 1.986233531795e+002 1.966070638263e+002 1.997027624566e+002 1.997028522880e+002 1.993977501552e+002 1.995037617832e+002 1.975926416686e+002 1.989448698334e+002 1.985290846819e+002 1.987481362192e+002 1.996534405950e+002 1.968715720280e+002 1.968798068556e+002 1.965218887902e+002 1.982588750112e+002 1.979106292596e+002 1.965270716029e+002 1.969535346083e+002 1.971554264863e+002 1.979818377348e+002 1.969123794919e+002 1.997129144895e+002 1.997129150655e+002 1.979530500245e+002 1.982317598266e+002 1.997079073385e+002 1.978456746220e+002 1.982383050330e+002 1.981957971857e+002 1.996353351794e+002 1.970862425555e+002 1.996865801137e+002 1.985771871963e+002 1.987910759904e+002 1.989835178651e+002 1.992430287601e+002 1.975036699950e+002 1.995317950710e+002 1.977911578492e+002 1.994323272905e+002 1.992966948747e+002 1.996982410340e+002 1.967946317650e+002 1.981478070982e+002 1.980580087513e+002 1.978743478775e+002 1.966095142735e+002 1.997321318328e+002 1.988063848923e+002 1.997321331701e+002 1.989090141018e+002 1.965496405998e+002 1.969945316559e+002 1.980825242485e+002 1.979830463853e+002 1.997272615597e+002 1.977206688766e+002 1.984229741256e+002 1.968759077892e+002 1.982637877675e+002 1.966914416444e+002 1.993601220411e+002 1.994729307965e+002 1.995642912771e+002 1.976827927666e+002 1.973905041018e+002 1.995737884114e+002 1.996638621557e+002 1.994849309093e+002 1.996033546566e+002 1.993747309798e+002 1.973552028043e+002 1.976486089036e+002 1.972364941187e+002 1.984843418720e+002 1.989090129054e+002 1.987075182080e+002 1.990872146178e+002 1.996687042088e+002 1.996100922787e+002 1.972065372136e+002 1.991698228163e+002 1.984567277470e+002 1.986824862185e+002 1.988862359803e+002 1.990671738950e+002 1.991515612798e+002 1.991978434325e+002 1.990357221331e+002 1.986427021448e+002 1.988505795686e+002 1.984130459682e+002 1.996782553994e+002 1.996236114897e+002 1.995492810781e+002 1.993370542738e+002 1.994540982713e+002 1.971456030928e+002 1.974443635888e+002 1.977351085624e+002 1.979068818570e+002 1.969399346311e+002 1.997269280228e+002 1.965508178485e+002 1.991488945543e+002 1.990896755642e+002 1.989113907184e+002 1.987106132390e+002 1.984876841017e+002 1.996017823077e+002 1.996627802801e+002 1.972426859036e+002 1.995749397923e+002 1.994861076516e+002 1.993760050366e+002 1.973506795877e+002 1.976455255140e+002 1.980755488322e+002 1.997134069875e+002 1.980450516603e+002 1.997161585784e+002 1.991949746421e+002 1.991996985135e+002 1.990410702902e+002 1.988565329480e+002 1.986494472880e+002 1.984204421395e+002 1.996773969420e+002 1.996223838757e+002 1.995468704294e+002 1.994510872751e+002 1.993394704402e+002 1.974528011957e+002 1.993354775060e+002 1.986468635911e+002 1.988468438912e+002 1.990390260065e+002 1.994528949239e+002 1.995483180096e+002 1.977377665788e+002 1.996237233198e+002 1.974476279546e+002 1.996783313618e+002 1.971443426880e+002 1.967317239390e+002 1.996158391096e+002 1.971809843536e+002 1.996727905714e+002 1.986669740763e+002 1.990549372422e+002 1.988738224351e+002 1.984396788843e+002 1.974126509049e+002 1.995582032973e+002 1.977040918810e+002 1.994652785036e+002 1.993504889910e+002 1.991817206330e+002 1.965049389047e+002 1.997321044434e+002 1.987379509939e+002 1.997200466071e+002 1.997252194028e+002 1.997252169178e+002 1.980365015740e+002 1.981394627644e+002 1.968624766893e+002 1.971516610950e+002 1.997052378764e+002 1.964956537492e+002 1.997128928050e+002 1.997127853766e+002 1.969808035686e+002 1.992959954444e+002 1.994199963740e+002 1.978212645161e+002 1.995218345809e+002 1.975361840227e+002 1.989853601551e+002 1.987913367292e+002 1.985794927857e+002 1.992426929886e+002 1.996912520104e+002 1.970470204336e+002 1.996426541664e+002 1.978728933269e+002 1.982941736824e+002 1.980109591346e+002 1.965975121315e+002 1.965186753132e+002 1.997310936876e+002 1.975247206103e+002 1.997310932794e+002 1.974598216439e+002 1.984252912762e+002 1.977218089970e+002 1.983351827765e+002 1.966379150675e+002 1.996934069711e+002 1.970542891860e+002 1.979611069326e+002 1.981786153390e+002 1.980046568560e+002 1.968492935116e+002 1.965971784764e+002 1.967420899521e+002 1.977814697503e+002 1.965955900974e+002 1.967902187960e+002 1.980283838365e+002 1.964880997961e+002 1.965525929021e+002 1.981098675291e+002 1.979389373901e+002 1.981864136998e+002 1.979774758138e+002 1.997231790488e+002 1.966328375244e+002 1.970749398018e+002 1.992142207210e+002 1.992504235987e+002 1.996932505460e+002 1.996457160895e+002 1.996836791681e+002 1.996310321825e+002 1.995221563526e+002 1.994203913947e+002 1.975352638506e+002 1.993229157757e+002 1.992897065244e+002 1.983803981592e+002 1.983304349623e+002 1.986132843357e+002 1.985632303458e+002 1.987790086018e+002 1.988241660559e+002 1.990122525210e+002 1.989722541082e+002 1.968179261911e+002 1.997294521769e+002 1.997294260588e+002 1.997309796671e+002 1.997309803618e+002 1.971575407225e+002 1.997305608657e+002 1.990722702435e+002 1.988920218553e+002 1.986889466153e+002 1.984638288271e+002 1.991651322268e+002 1.992294672483e+002 1.993092488997e+002 1.994307968801e+002 1.977954767201e+002 1.995305626193e+002 1.975077617944e+002 1.996094084516e+002 1.972095074294e+002 1.996682213978e+002 1.996682079884e+002 1.996093886678e+002 1.996874613318e+002 1.995304835412e+002 1.994306990843e+0