<?xml version="1.0"?>
<VTKFile type="UnstructuredGrid" version="0.1" byte_order="LittleEndian">
  <UnstructuredGrid>
    <Piece NumberOfPoints="2604" NumberOfCells="4910">
      <Points>
        <DataArray type="Float64" NumberOfComponents="3" format="ascii">
          0.000000000000e+000 0.000000000000e+000 0.000000000000e+000
          2.000000000000e+002 0.000000000000e+000 0.000000000000e+000
          2.000000000000e+002 2.000000000000e+001 0.000000000000e+000
          0.000000000000e+000 2.000000000000e+001 0.000000000000e+000
          1.492537313427e+000 0.000000000000e+000 0.000000000000e+000
          2.985074626854e+000 0.000000000000e+000 0.000000000000e+000
          4.477611940281e+000 0.000000000000e+000 0.000000000000e+000
          5.970149253708e+000 0.000000000000e+000 0.000000000000e+000
          7.462686567135e+000 0.000000000000e+000 0.000000000000e+000
          8.955223880561e+000 0.000000000000e+000 0.000000000000e+000
          1.044776119399e+001 0.000000000000e+000 0.000000000000e+000
          1.194029850741e+001 0.000000000000e+000 0.000000000000e+000
          1.343283582084e+001 0.000000000000e+000 0.000000000000e+000
          1.492537313427e+001 0.000000000000e+000 0.000000000000e+000
          1.641791044770e+001 0.000000000000e+000 0.000000000000e+000
          1.791044776112e+001 0.000000000000e+000 0.000000000000e+000
          1.940298507455e+001 0.000000000000e+000 0.000000000000e+000
          2.089552238798e+001 0.000000000000e+000 0.000000000000e+000
          2.238805970141e+001 0.000000000000e+000 0.000000000000e+000
          2.388059701484e+001 0.000000000000e+000 0.000000000000e+000
          2.537313432826e+001 0.000000000000e+000 0.000000000000e+000
          2.686567164169e+001 0.000000000000e+000 0.000000000000e+000
          2.835820895511e+001 0.000000000000e+000 0.000000000000e+000
          2.985074626854e+001 0.000000000000e+000 0.000000000000e+000
          3.134328358196e+001 0.000000000000e+000 0.000000000000e+000
          3.283582089539e+001 0.000000000000e+000 0.000000000000e+000
          3.432835820881e+001 0.000000000000e+000 0.000000000000e+000
          3.582089552224e+001 0.000000000000e+000 0.000000000000e+000
          3.731343283566e+001 0.000000000000e+000 0.000000000000e+000
          3.880597014909e+001 0.000000000000e+000 0.000000000000e+000
          4.029850746251e+001 0.000000000000e+000 0.000000000000e+000
          4.179104477594e+001 0.000000000000e+000 0.000000000000e+000
          4.328358208936e+001 0.000000000000e+000 0.000000000000e+000
          4.477611940279e+001 0.000000000000e+000 0.000000000000e+000
          4.626865671621e+001 0.000000000000e+000 0.000000000000e+000
          4.776119402964e+001 0.000000000000e+000 0.000000000000e+000
          4.925373134306e+001 0.000000000000e+000 0.000000000000e+000
          5.074626865649e+001 0.000000000000e+000 0.000000000000e+000
          5.223880596991e+001 0.000000000000e+000 0.000000000000e+000
          5.373134328334e+001 0.000000000000e+000 0.000000000000e+000
          5.522388059676e+001 0.000000000000e+000 0.000000000000e+000
          5.671641791019e+001 0.000000000000e+000 0.000000000000e+000
          5.820895522361e+001 0.000000000000e+000 0.000000000000e+000
          5.970149253704e+001 0.000000000000e+000 0.000000000000e+000
          6.119402985046e+001 0.000000000000e+000 0.000000000000e+000
          6.268656716389e+001 0.000000000000e+000 0.000000000000e+000
          6.417910447732e+001 0.000000000000e+000 0.000000000000e+000
          6.567164179075e+001 0.000000000000e+000 0.000000000000e+000
          6.716417910418e+001 0.000000000000e+000 0.000000000000e+000
          6.865671641761e+001 0.000000000000e+000 0.000000000000e+000
          7.014925373104e+001 0.000000000000e+000 0.000000000000e+000
          7.164179104447e+001 0.000000000000e+000 0.000000000000e+000
          7.313432835790e+001 0.000000000000e+000 0.000000000000e+000
          7.462686567133e+001 0.000000000000e+000 0.000000000000e+000
          7.611940298476e+001 0.000000000000e+000 0.000000000000e+000
          7.761194029819e+001 0.000000000000e+000 0.000000000000e+000
          7.910447761162e+001 0.000000000000e+000 0.000000000000e+000
          8.059701492505e+001 0.000000000000e+000 0.000000000000e+000
          8.208955223848e+001 0.000000000000e+000 0.000000000000e+000
          8.358208955191e+001 0.000000000000e+000 0.000000000000e+000
          8.507462686534e+001 0.000000000000e+000 0.000000000000e+000
          8.656716417877e+001 0.000000000000e+000 0.000000000000e+000
          8.805970149220e+001 0.000000000000e+000 0.000000000000e+000
          8.955223880563e+001 0.000000000000e+000 0.000000000000e+000
          9.104477611907e+001 0.000000000000e+000 0.000000000000e+000
          9.253731343250e+001 0.000000000000e+000 0.000000000000e+000
          9.402985074593e+001 0.000000000000e+000 0.000000000000e+000
          9.552238805936e+001 0.000000000000e+000 0.000000000000e+000
          9.701492537279e+001 0.000000000000e+000 0.000000000000e+000
          9.850746268622e+001 0.000000000000e+000 0.000000000000e+000
          9.999999999965e+001 0.000000000000e+000 0.000000000000e+000
          1.014925373131e+002 0.000000000000e+000 0.000000000000e+000
          1.029850746265e+002 0.000000000000e+000 0.000000000000e+000
          1.044776119399e+002 0.000000000000e+000 0.000000000000e+000
          1.059701492534e+002 0.000000000000e+000 0.000000000000e+000
          1.074626865668e+002 0.000000000000e+000 0.000000000000e+000
          1.089552238802e+002 0.000000000000e+000 0.000000000000e+000
          1.104477611937e+002 0.000000000000e+000 0.000000000000e+000
          1.119402985071e+002 0.000000000000e+000 0.000000000000e+000
          1.134328358205e+002 0.000000000000e+000 0.000000000000e+000
          1.149253731340e+002 0.000000000000e+000 0.000000000000e+000
          1.164179104474e+002 0.000000000000e+000 0.000000000000e+000
          1.179104477608e+002 0.000000000000e+000 0.000000000000e+000
          1.194029850742e+002 0.000000000000e+000 0.000000000000e+000
          1.208955223877e+002 0.000000000000e+000 0.000000000000e+000
          1.223880597011e+002 0.000000000000e+000 0.000000000000e+000
          1.238805970145e+002 0.000000000000e+000 0.000000000000e+000
          1.253731343280e+002 0.000000000000e+000 0.000000000000e+000
          1.268656716414e+002 0.000000000000e+000 0.000000000000e+000
          1.283582089548e+002 0.000000000000e+000 0.000000000000e+000
          1.298507462683e+002 0.000000000000e+000 0.000000000000e+000
          1.313432835817e+002 0.000000000000e+000 0.000000000000e+000
          1.328358208952e+002 0.000000000000e+000 0.000000000000e+000
          1.343283582086e+002 0.000000000000e+000 0.000000000000e+000
          1.358208955220e+002 0.000000000000e+000 0.000000000000e+000
          1.373134328355e+002 0.000000000000e+000 0.000000000000e+000
          1.388059701489e+002 0.000000000000e+000 0.000000000000e+000
          1.402985074624e+002 0.000000000000e+000 0.000000000000e+000
          1.417910447758e+002 0.000000000000e+000 0.000000000000e+000
          1.432835820892e+002 0.000000000000e+000 0.000000000000e+000
          1.447761194027e+002 0.000000000000e+000 0.000000000000e+000
          1.462686567161e+002 0.000000000000e+000 0.000000000000e+000
          1.477611940296e+002 0.000000000000e+000 0.000000000000e+000
          1.492537313430e+002 0.000000000000e+000 0.000000000000e+000
          1.507462686564e+002 0.000000000000e+000 0.000000000000e+000
          1.522388059699e+002 0.000000000000e+000 0.000000000000e+000
          1.537313432833e+002 0.000000000000e+000 0.000000000000e+000
          1.552238805968e+002 0.000000000000e+000 0.000000000000e+000
          1.567164179102e+002 0.000000000000e+000 0.000000000000e+000
          1.582089552237e+002 0.000000000000e+000 0.000000000000e+000
          1.597014925371e+002 0.000000000000e+000 0.000000000000e+000
          1.611940298505e+002 0.000000000000e+000 0.000000000000e+000
          1.626865671640e+002 0.000000000000e+000 0.000000000000e+000
          1.641791044774e+002 0.000000000000e+000 0.000000000000e+000
          1.656716417909e+002 0.000000000000e+000 0.000000000000e+000
          1.671641791043e+002 0.000000000000e+000 0.000000000000e+000
          1.686567164177e+002 0.000000000000e+000 0.000000000000e+000
          1.701492537312e+002 0.000000000000e+000 0.000000000000e+000
          1.716417910446e+002 0.000000000000e+000 0.000000000000e+000
          1.731343283581e+002 0.000000000000e+000 0.000000000000e+000
          1.746268656715e+002 0.000000000000e+000 0.000000000000e+000
          1.761194029849e+002 0.000000000000e+000 0.000000000000e+000
          1.776119402984e+002 0.000000000000e+000 0.000000000000e+000
          1.791044776118e+002 0.000000000000e+000 0.000000000000e+000
          1.805970149253e+002 0.000000000000e+000 0.000000000000e+000
          1.820895522387e+002 0.000000000000e+000 0.000000000000e+000
          1.835820895521e+002 0.000000000000e+000 0.000000000000e+000
          1.850746268656e+002 0.000000000000e+000 0.000000000000e+000
          1.865671641790e+002 0.000000000000e+000 0.000000000000e+000
          1.880597014925e+002 0.000000000000e+000 0.000000000000e+000
          1.895522388059e+002 0.000000000000e+000 0.000000000000e+000
          1.910447761194e+002 0.000000000000e+000 0.000000000000e+000
          1.925373134328e+002 0.000000000000e+000 0.000000000000e+000
          1.940298507462e+002 0.000000000000e+000 0.000000000000e+000
          1.955223880597e+002 0.000000000000e+000 0.000000000000e+000
          1.970149253731e+002 0.000000000000e+000 0.000000000000e+000
          1.985074626866e+002 0.000000000000e+000 0.000000000000e+000
          2.000000000000e+002 1.428571428570e+000 0.000000000000e+000
          2.000000000000e+002 2.857142857140e+000 0.000000000000e+000
[...]
      <PointData Scalars="MEAN_PRESSURE">
        <DataArray type="Float64" Name="MEAN_PRESSURE" format="ascii">
          2.000000000000e+002 1.995553484039e+002 1.995553468405e+002 2.000000000000e+002 1.993901906224e+002 1.982357796381e+002 1.975035016031e+002 1.970375235999e+002 1.967673588095e+002 1.966324298863e+002 1.965777380579e+002 1.965732508456e+002 1.965952523082e+002 1.966302480951e+002 1.966704024342e+002 1.967120084100e+002 1.967534109467e+002 1.967940787370e+002 1.968340195157e+002 1.968733933232e+002 1.969123917856e+002 1.969511319485e+002 1.969897318917e+002 1.970282423045e+002 1.970666852616e+002 1.971050660278e+002 1.971433856477e+002 1.971816354286e+002 1.972198024386e+002 1.972578776299e+002 1.972958497303e+002 1.973337109562e+002 1.973714470736e+002 1.974090506490e+002 1.974465117799e+002 1.974838194932e+002 1.975209683449e+002 1.975579449509e+002 1.975947441299e+002 1.976313595820e+002 1.976677773256e+002 1.977039863539e+002 1.977399882841e+002 1.977757693433e+002 1.978113254566e+002 1.978466471977e+002 1.978817321304e+002 1.979165591665e+002 1.979511410820e+002 1.979854550658e+002 1.980194980121e+002 1.980532666781e+002 1.980867602547e+002 1.981199503078e+002 1.981528535275e+002 1.981854572458e+002 1.982177591089e+002 1.982497422059e+002 1.982814059782e+002 1.983127625523e+002 1.983437743902e+002 1.983744551910e+002 1.984047984418e+002 1.984348059265e+002 1.984644634949e+002 1.984937696679e+002 1.985227214482e+002 1.985513110365e+002 1.985795411651e+002 1.986073996699e+002 1.986348952606e+002 1.986620093012e+002 1.986887509435e+002 1.987151104603e+002 1.987410848820e+002 1.987666772463e+002 1.987918762017e+002 1.988166911959e+002 1.988411091394e+002 1.988651329874e+002 1.988887531455e+002 1.989119802522e+002 1.989348014549e+002 1.989572230861e+002 1.989792370676e+002 1.990008439260e+002 1.990220450670e+002 1.990428366874e+002 1.990632178170e+002 1.990831883077e+002 1.991027471434e+002 1.991218942505e+002 1.991406290775e+002 1.991589479239e+002 1.991768483484e+002 1.991943391636e+002 1.992114099976e+002 1.992280658205e+002 1.992443069592e+002 1.992601346363e+002 1.992755444839e+002 1.992905344203e+002 1.993051135576e+002 1.993192718124e+002 1.993330146088e+002 1.993463427369e+002 1.993592578320e+002 1.993717558719e+002 1.993838350885e+002 1.993955048344e+002 1.994067552303e+002 1.994175916683e+002 1.994280160809e+002 1.994380311789e+002 1.994476304215e+002 1.994568132932e+002 1.994655898266e+002 1.994739499102e+002 1.994818989045e+002 1.994894383132e+002 1.994965712093e+002 1.995032938730e+002 1.995096033985e+002 1.995155036090e+002 1.995209943265e+002 1.995260728570e+002 1.995307480221e+002 1.995350198482e+002 1.995388776966e+002 1.995423369300e+002 1.995453947024e+002 1.995480249853e+002 1.995502554137e+002 1.995520814878e+002 1.995535242750e+002 1.995544989293e+002 1.995551262041e+002 1.995553266972e+002 1.995553064842e+002 1.995553503810e+002 1.995553415736e+002 1.995553372581e+002 1.995553293367e+002 1.995553241388e+002 1.995553277434e+002 1.995553281595e+002 1.995553182466e+002 1.995553456439e+002 1.995553039991e+002 1.995553249708e+002 1.995551247963e+002 1.995544978119e+002 1.995535233081e+002 1.995520805334e+002 1.995502546780e+002 1.995480255393e+002 1.995453965068e+002 1.995423389921e+002 1.995388796310e+002 1.995350216538e+002 1.995307484672e+002 1.995260736281e+002 1.995209940952e+002 1.995155023019e+002 1.995096024288e+002 1.995032919134e+002 1.994965687560e+002 1.994894436278e+002 1.994819032775e+002 1.994739510253e+002 1.994655895676e+002 1.994568146403e+002 1.994476269380e+002 1.994380306260e+002 1.994280191336e+002 1.994175957857e+002 1.994067552136e+002 1.993955035666e+002 1.993838327006e+002 1.993717544835e+002 1.993592559269e+002 1.993463435106e+002 1.993330160628e+002 1.993192689741e+002 1.993051117185e+002 1.992905326055e+002 1.992755439952e+002 1.992601334868e+002 1.992443080563e+002 1.992280670520e+002 1.992114067826e+002 1.991943373128e+002 1.991768470722e+002 1.991589480994e+002 1.991406287599e+002 1.991218917160e+002 1.991027482388e+002 1.990831890743e+002 1.990632181799e+002 1.990428366809e+002 1.990220462927e+002 1.990008482057e+002 1.989792405655e+002 1.989572228480e+002 1.989348055786e+002 1.989119804726e+002 1.988887540563e+002 1.988651292210e+002 1.988411106534e+002 1.988166908672e+002 1.987918805425e+002 1.987666790259e+002 1.987410862757e+002 1.987151080230e+002 1.986887483913e+002 1.986620108390e+002 1.986348938483e+002 1.986074026423e+002 1.985795396577e+002 1.985513109615e+002 1.985227186004e+002 1.984937679904e+002 1.984644639467e+002 1.984348065088e+002 1.984048019494e+002 1.983744539078e+002 1.983437693620e+002 1.983127515436e+002 1.982814066202e+002 1.982497416042e+002 1.982177573624e+002 1.981854606938e+002 1.981528560927e+002 1.981199518085e+002 1.980867519156e+002 1.980532646778e+002 1.980194958458e+002 1.979854457634e+002 1.979511343497e+002 1.979165592315e+002 1.978817254318e+002 1.978466462154e+002 1.978113190163e+002 1.977757583759e+002 1.977399737306e+002 1.977039670503e+002 1.976677480595e+002 1.976313256279e+002 1.975947054657e+002 1.975578945344e+002 1.975209047223e+002 1.974837394142e+002 1.974464087947e+002 1.974089209255e+002 1.973712840361e+002 1.973335041721e+002 1.972955887297e+002 1.972575475643e+002 1.972193840575e+002 1.971811060802e+002 1.971427184468e+002 1.971042240386e+002 1.970656191417e+002 1.970268944434e+002 1.969880271379e+002 1.969489716568e+002 1.969096492241e+002 1.968699293521e+002 1.968296473068e+002 1.967885463069e+002 1.967464555644e+002 1.967032796646e+002 1.966594860147e+002 1.966165989194e+002 1.965786866323e+002 1.965535570185e+002 1.965553630387e+002 1.966044434229e+002 1.967411651487e+002 1.970139289173e+002 1.974776518476e+002 1.982184481634e+002 1.993695448247e+002 2.000000000000e+002 2.000000000000e+002 2.000000000000e+002 2.000000000000e+002 2.000000000000e+002 2.000000000000e+002 2.000000000000e+002 2.000000000000e+002 2.000000000000e+002 2.000000000000e+002 2.000000000000e+002 2.000000000000e+002 2.000000000000e+002 1.995461964790e+002 1.965732624136e+002 1.995184731475e+002 1.994699792342e+002 1.994004703136e+002 1.993113509829e+002 1.992018490683e+002 1.969694624612e+002 1.990732456296e+002 1.972410417592e+002 1.975047008361e+002 1.977623506962e+002 1.981336318629e+002 1.983591460547e+002 1.985654618719e+002 1.987539204288e+002 1.989234307863e+002 1.967325974836e+002 1.979511393453e+002 1.990008385865e+002 1.989998561637e+002 1.988411098587e+002 1.986620098628e+002 1.984644647079e+002 1.982497437819e+002 1.994976197132e+002 1.994395134490e+002 1.993607370604e+002 1.982497376383e+002 1.984591681748e+002 1.986641818356e+002 1.988367547964e+002 1.992619578691e+002 1.991406210090e+002 1.971029432892e+002 1.973669702630e+002 1.976354614628e+002 1.991414880965e+002 1.992602837525e+002 1.993593779659e+002 1.994380204615e+002 1.994965608849e+002 1.976309575102e+002 1.973709360616e+002 1.971044120673e+002 1.995345931802e+002 1.995343368053e+002 1.978767237189e+002 1.980285579339e+002 1.966200915337e+002 1.968359534926e+002 1.995521416041e+002 1.970263927479e+002 1.995521921648e+002 1.970207236416e+002 1.966009996781e+002 1.968675819281e+002 1.978386192850e+002 1.980580622762e+002 1.995183050823e+002 1.989234342445e+002 1.994698142571e+002 1.987539299295e+002 1.985654715640e+002 1.983591538459e+002 1.981434229992e+002 1.990730529253e+002 1.994013722153e+002 1.993134964872e+002 1.992044400928e+002 1.972380920170e+002 1.974990915580e+002 1.990734389675e+002 1.992029174528e+002 1.993122369190e+002 1.994011743973e+002 1.983590970758e+002 1.985654177442e+002 1.987538779445e+002 1.994698142874e+002 1.989238449995e+002 1.995182982767e+002 1.977578979206e+002 1.975023502241e+002 1.972385314690e+002 1.969687910786e+002 1.995450450225e+002 1.995452353254e+002 1.965522926919e+002 1.969902761876e+002 1.981595269763e+002 1.977304264152e+002 1.995536625351e+002 1.975575290167e+002 1.967367849341e+002 1.965863140899e+002 1.967300720463e+002 1.979313467987e+002 1.978586319435e+002 1.980429773647e+002 1.966033410427e+002 1.968419775724e+002 1.979519163204e+002 1.995377044459e+002 1.993705467482e+002 1.994283754711e+002 1.992740523685e+002 1.994896910438e+002 1.991571542423e+002 1.988611031867e+002 1.984888521439e+002 1.982760931451e+002 1.986861382824e+002 1.971416295814e+002 1.975982974892e+002 1.973372963386e+002 1.989813394217e+002 1.979511362205e+002 1.995543100392e+002 1.980737645104e+002 1.995543100159e+002 1.980419527435e+002 1.988736639455e+002 1.986982648058e+002 1.985042154560e+002 1.982927131587e+002 1.991150384124e+002 1.989704752460e+002 1.990295594778e+002 1.992384995143e+002 1.976807986871e+002 1.993415834878e+002 1.974224310980e+002 1.994242988493e+002 1.971565835473e+002 1.994867596169e+002 1.994864728540e+002 1.995060585083e+002 1.994238971671e+002 1.994511561338e+002 1.993403472178e+002 1.993756683688e+002 1.992369902978e+002 1.992803955233e+002 1.971623044719e+002 1.991646203530e+002 1.991149844385e+002 1.974260550633e+002 1.973215215474e+002 1.982928796173e+002 1.985053978448e+002 1.987003824542e+002 1.984251086368e+002 1.986258987489e+002 1.988726059501e+002 1.988086803800e+002 1.975920975539e+002 1.990296144571e+002 1.989746269725e+002 1.995056070638e+002 1.970517813705e+002 1.994495502685e+002 1.973255366237e+002 1.993743279487e+002 1.975869626366e+002 1.992787296847e+002 1.982009482056e+002 1.984210330354e+002 1.986222815961e+002 1.988048706972e+002 1.991627467043e+002 1.967137350780e+002 1.995288324208e+002 1.995286244556e+002 1.980644682015e+002 1.978310892625e+002 1.968883970271e+002 1.990277595869e+002 1.986267038759e+002 1.988098240996e+002 1.984264953929e+002 1.982016039041e+002 1.970547018925e+002 1.974192725608e+002 1.995052089967e+002 1.976786043196e+002 1.994501761914e+002 1.993427253016e+002 1.991166870370e+002 1.992398923996e+002 1.970657517581e+002 1.995390187628e+002 1.995390180158e+002 1.980049407369e+002 1.965791221109e+002 1.995292731934e+002 1.990446939856e+002 1.991012934703e+002 1.992268067088e+002 1.977046243363e+002 1.993319784778e+002 1.974493012249e+002 1.984025469409e+002 1.986053313666e+002 1.987900108089e+002 1.995097194701e+002 1.970266181366e+002 1.994574993710e+002 1.968150553185e+002 1.981882082214e+002 1.995501616572e+002 1.995499121802e+002 1.995254735441e+002 1.982218590479e+002 1.976632610039e+002 1.980906745814e+002 1.978060668496e+002 1.967321307569e+002 1.969165941339e+002 1.965567798683e+002 1.966476090848e+002 1.969173120375e+002 1.988876436087e+002 1.987142820416e+002 1.985218070916e+002 1.983117645068e+002 1.994181454481e+002 1.971793008418e+002 1.994823181751e+002 1.989563108560e+002 1.991763706416e+002 1.994171683670e+002 1.992911690491e+002 1.994815974738e+002 1.993843417447e+002 1.988904365635e+002 1.987142099185e+002 1.985239174362e+002 1.983140509172e+002 1.971830818687e+002 1.975589816124e+002 1.972941876391e+002 1.972940771263e+002 1.993843333874e+002 1.975563635685e+002 1.992911484869e+002 1.991775828260e+002 1.989562915687e+002 1.995544134525e+002 1.995544734838e+002 1.981704319801e+002 1.980555943240e+002 1.995506180381e+002 1.967819182985e+002 1.995423085325e+002 1.995428735137e+002 1.966255562051e+002 1.995486102216e+002 1.965613118711e+002 1.968201839633e+002 1.977969992575e+002 1.981008432110e+002 1.969390808354e+002 1.965770931017e+002 1.977728424267e+002 1.967970123980e+002 1.967900860460e+002 1.981240256010e+002 1.966838375185e+002 1.978618109154e+002 1.980012296245e+002 1.966549250310e+002 1.974377894205e+002 1.991082971959e+002 1.992318889429e+002 1.993361577105e+002 1.994558013690e+002 1.995089691129e+002 1.990369259798e+002 1.981923043359e+002 1.984109712410e+002 1.986130591012e+002 1.987969899651e+002 1.978990646741e+002 1.967970829633e+002 1.980083097900e+002 1.978895770935e+002 1.995267039780e+002 1.995478505921e+002 1.970374054764e+002 1.976876084834e+002 1.966667189958e+002 1.969212621158e+002 1.995516972117e+002 1.966723936539e+002 1.989108864878e+002 1.987398614865e+002 1.985499652134e+002 1.983423099370e+002 1.990827009311e+002 1.990636976648e+002 1.989362114200e+002 1.992121882094e+002 1.993199134626e+002 1.977382846197e+002 1.994072610323e+002 1.974819878702e+002 1.994743201488e+002 1.972176021682e+002 1.995153615653e+002 1.994740354809e+002 1.994074395181e+002 1.993203428972e+002 1.992127060251e+002 1.972173881723e+002 1.974809059637e+002 1.983434369906e+002 1.985497411931e+002 1.987396586420e+002 1.995152264725e+002 1.969899169228e+002 1.981559704106e+002 1.995187154592e+002 1.995438552425e+002 1.995438579460e+002 1.970083660775e+002 1.969071572367e+002 1.965485892347e+002 1.979885867620e+002 1.995003455656e+002 1.994434026086e+002 1.993521367797e+002 1.992513983565e+002 1.991286225566e+002 1.970831931408e+002 1.973922425702e+002 1.976515705146e+002 1.988283865017e+002 1.984489957257e+002 1.982333218125e+002 1.986446144152e+002 1.990145273015e+002 1.995322582280e+002 1.995526318714e+002 1.995526330990e+002 1.994683830706e+002 1.993144990328e+002 1.992056495192e+002 1.974964435115e+002 1.983643644606e+002 1.985702644788e+002 1.987582728158e+002 1.971620378540e+002 1.979143705883e+002 1.990769714858e+002 1.990696247259e+002 1.981426690995e+002 1.995548796232e+002 1.987328282595e+002 1.977131852805e+002 1.981780382787e+002 1.991399314286e+002 1.992595450375e+002 1.993587765389e+002 1.994965635347e+002 1.994380457263e+002 1.976326797953e+002 1.973726879728e+002 1.971042494603e+002 1.986620080339e+002 1.988411086167e+002 1.982497380365e+002 1.984644613542e+002 1.994965592435e+002 1.994380242297e+002 1.984644537026e+002 1.986624686098e+002 1.993592458271e+002 1.988413237037e+002 1.992601236251e+002 1.991407927161e+002 1.973714385169e+002 1.990016348606e+002 1.990008374684e+002 1.967721369819e+002 1.978067204854e+002 1.967578208141e+002 1.982045931283e+002 1.979597876240e+002 1.995400479949e+002 1.995396981729e+002 1.980524515635e+002 1.980714850796e+002 1.979756208388e+002 1.990916817608e+002 1.989020009948e+002 1.989445311224e+002 1.990544685509e+002 1.987776013522e+002 1.985916107132e+002 1.983875940784e+002 1.991868368173e+002 1.972742735882e+002 1.975369503326e+002 1.994624180077e+002 1.993905134257e+002 1.992988673016e+002 1.994618504954e+002 1.972739926467e+002 1.993905169770e+002 1.975368955930e+002 1.983875970775e+002 1.985916136813e+002 1.987740931683e+002 1.992988698181e+002 1.991868381603e+002 1.972900117984e+002 1.965636712063e+002 1.995528758311e+002 1.972442427080e+002 1.989242690164e+002 1.989225990028e+002 1.972376686270e+002 1.972372022145e+002 1.994015825931e+002 1.994014883762e+002 1.995494647982e+002 1.966828045280e+002 1.966267905159e+002 1.969922924626e+002 1.967265666181e+002 1.995549177511e+002 1.988363829928e+002 1.995549419386e+002 1.987537959358e+002 1.966230926195e+002 1.995230483516e+002 1.995231457092e+002 1.992024389329e+002 1.993118398119e+002 1.975034109756e+002 1.987528044162e+002 1.983578041494e+002 1.985642272248e+002 1.994698981893e+002 1.968608387413e+002 1.968683485035e+002 1.965630629183e+002 1.981073141717e+002 1.977896811659e+002 1.965692061526e+002 1.969341974908e+002 1.971136879763e+002 1.978542330393e+002 1.968974487838e+002 1.995340612723e+002 1.995340618800e+002 1.978281133676e+002 1.980823935801e+002 1.995286263493e+002 1.977309533523e+002 1.980884070627e+002 1.980493937217e+002 1.994505293177e+002 1.970522198887e+002 1.995055460692e+002 1.984028498735e+002 1.986051070871e+002 1.987902613592e+002 1.990459271186e+002 1.974238010001e+002 1.993411027525e+002 1.976817710895e+002 1.992379132542e+002 1.990998256416e+002 1.995181517746e+002 1.967912145905e+002 1.980054500364e+002 1.979234944502e+002 1.977568608218e+002 1.966246748848e+002 1.995549797663e+002 1.989196620732e+002 1.995549812324e+002 1.990120675800e+002 1.966719664965e+002 1.969707427982e+002 1.979458352867e+002 1.978553292965e+002 1.995496694757e+002 1.976183129988e+002 1.982589470148e+002 1.968648016845e+002 1.981118350622e+002 1.966971160445e+002 1.991640527125e+002 1.992798243599e+002 1.993752114772e+002 1.975842750104e+002 1.973227888120e+002 1.993852190944e+002 1.994810807598e+002 1.992922649435e+002 1.994164926063e+002 1.991789286532e+002 1.972913373451e+002 1.975535884892e+002 1.971857062855e+002 1.983160364640e+002 1.987181811579e+002 1.985256893797e+002 1.988915088061e+002 1.994862853567e+002 1.994236456340e+002 1.971590630306e+002 1.989730133255e+002 1.982903227089e+002 1.985020053397e+002 1.986962509785e+002 1.988718557827e+002 1.989549257864e+002 1.990008413129e+002 1.988410938158e+002 1.984644509506e+002 1.986620065086e+002 1.982497322806e+002 1.994965667947e+002 1.994380257987e+002 1.993594306329e+002 1.991406246626e+002 1.992603498489e+002 1.971049507715e+002 1.973708347580e+002 1.976312996081e+002 1.977862914350e+002 1.969221556684e+002 1.995493060330e+002 1.966705529984e+002 1.989522886198e+002 1.988939257865e+002 1.987204737938e+002 1.985286226042e+002 1.983191529771e+002 1.994148252694e+002 1.994799188928e+002 1.971912005015e+002 1.993864343942e+002 1.992934868388e+002 1.991802289785e+002 1.972873052822e+002 1.975508221173e+002 1.979394767826e+002 1.995345963007e+002 1.979116979287e+002 1.995375860904e+002 1.989979884890e+002 1.990026869001e+002 1.988463166610e+002 1.986677174551e+002 1.984708096200e+002 1.982565969456e+002 1.994956418707e+002 1.994367184177e+002 1.993569001216e+002 1.992572415630e+002 1.991430754077e+002 1.973783677626e+002 1.991390262320e+002 1.984683721301e+002 1.986584256107e+002 1.988443184193e+002 1.992591077020e+002 1.993584197079e+002 1.976336922226e+002 1.994381453778e+002 1.973737448648e+002 1.994966488932e+002 1.971038100293e+002 1.967337519983e+002 1.994297535699e+002 1.971363644582e+002 1.994906815026e+002 1.984873481881e+002 1.988598739126e+002 1.986843143270e+002 1.982744666910e+002 1.973425393084e+002 1.993688061309e+002 1.976034121243e+002 1.992719044568e+002 1.991542599386e+002 1.989848181007e+002 1.965886900653e+002 1.995549498881e+002 1.988554942460e+002 1.995418138153e+002 1.995474446294e+002 1.995474419366e+002 1.979039162071e+002 1.979978207361e+002 1.968526061558e+002 1.971103412119e+002 1.995257314324e+002 1.965869643816e+002 1.995340378338e+002 1.995339211497e+002 1.969585893681e+002 1.990991205053e+002 1.992252387493e+002 1.977089188337e+002 1.993306875948e+002 1.974528724694e+002 1.987920521309e+002 1.986053575616e+002 1.984050143312e+002 1.990455918877e+002 1.995105923439e+002 1.970174076536e+002 1.994583496840e+002 1.977555431799e+002 1.981398094659e+002 1.978806843996e+002 1.966158773394e+002 1.965694854598e+002 1.995538473166e+002 1.977102604212e+002 1.995538468770e+002 1.976498081512e+002 1.982610968819e+002 1.976193383540e+002 1.981776452844e+002 1.966495183167e+002 1.995129219321e+002 1.972355006507e+002 1.978354213220e+002 1.980336479469e+002 1.978749576634e+002 1.968407185356e+002 1.966141370062e+002 1.967431920012e+002 1.976730403073e+002 1.966127552146e+002 1.967872406998e+002 1.978965312669e+002 1.965544917594e+002 1.965818262419e+002 1.979707824247e+002 1.978153222532e+002 1.980407911921e+002 1.978502716610e+002 1.995452227665e+002 1.967694750215e+002 1.970422276317e+002 1.990171507192e+002 1.990533300023e+002 1.995127526699e+002 1.994616251103e+002 1.995024147335e+002 1.994459357384e+002 1.993310223722e+002 1.992256424796e+002 1.974520495728e+002 1.991263039794e+002 1.990927838447e+002 1.982194669977e+002 1.981732626717e+002 1.984367545147e+002 1.983897636999e+002 1.985936029969e+002 1.986367135873e+002 1.988182068809e+002 1.987793291285e+002 1.969911208042e+002 1.995520572279e+002 1.995520287791e+002 1.995537229448e+002 1.995537237093e+002 1.973467338000e+002 1.995532661919e+002 1.988768469444e+002 1.987018145362e+002 1.985081109513e+002 1.982969283505e+002 1.989683618695e+002 1.990323670777e+002 1.991124907482e+002 1.992363377737e+002 1.976856627337e+002 1.993398122557e+002 1.974274563426e+002 1.994229186425e+002 1.971616972560e+002 1.994857658275e+002 1.994857513072e+002 1.994228974234e+002 1.995064973311e+002 1.993397295866e+002 1.992362373361e+0